
     Program PWSCF v.7.2 starts on  6Aug2025 at  7:20:24 

     This program is part of the open-source Quantum ESPRESSO suite
     for quantum simulation of materials; please cite
         "P. Giannozzi et al., J. Phys.:Condens. Matter 21 395502 (2009);
         "P. Giannozzi et al., J. Phys.:Condens. Matter 29 465901 (2017);
         "P. Giannozzi et al., J. Chem. Phys. 152 154105 (2020);
          URL http://www.quantum-espresso.org", 
     in publications or presentations arising from this work. More details at
     http://www.quantum-espresso.org/quote

     Parallel version (MPI & OpenMP), running on     256 processor cores
     Number of MPI processes:               256
     Threads/MPI process:                     1

     MPI processes distributed on     4 nodes
     241846 MiB available memory on the printing compute node when the environment starts

     Reading input from LiAg_mp-2426_100_bridge_1.in

     Current dimensions of program PWSCF are:
     Max number of different atomic species (ntypx) = 10
     Max number of k-points (npk) =  40000
     Max angular momentum in pseudopotentials (lmaxx) =  4
     Message from routine iosys:
     restart disabled: needed files not found
     Message from routine find_sym:
     Not a group! Trying with lower acceptance parameter...
     Message from routine find_sym:
     Still not a group! symmetry disabled

     K-points division:     npool     =       4
     R & G space division:  proc/nbgrp/npool/nimage =      64
     Subspace diagonalization in iterative solution of the eigenvalue problem:
     a serial algorithm will be used


     Parallelization info
     --------------------
     sticks:   dense  smooth     PW     G-vecs:    dense   smooth      PW
     Min          21       9      2                 5367     1557     224
     Max          22      10      3                 5430     1610     289
     Sum        1373     609    185               345099   100593   16881

     Using Slab Decomposition



     bravais-lattice index     =            0
     lattice parameter (alat)  =       5.9011  a.u.
     unit-cell volume          =    1829.8696 (a.u.)^3
     number of atoms/cell      =            7
     number of atomic types    =            2
     number of electrons       =        45.00
     number of Kohn-Sham states=           28
     kinetic-energy cutoff     =      55.0000  Ry
     charge density cutoff     =     500.0000  Ry
     scf convergence threshold =      1.0E-06
     mixing beta               =       0.3000
     number of iterations used =            8  plain     mixing
     energy convergence thresh.=      1.0E-04
     force convergence thresh. =      1.0E-03
     Exchange-correlation= PBE
                           (   1   4   3   4   0   0   0)
     nstep                     =          500


     celldm(1)=   5.901124  celldm(2)=   0.000000  celldm(3)=   0.000000
     celldm(4)=   0.000000  celldm(5)=   0.000000  celldm(6)=   0.000000

     crystal axes: (cart. coord. in units of alat)
               a(1) = (   1.000000   0.000000   0.000000 )  
               a(2) = (   0.000000   1.000000   0.000000 )  
               a(3) = (   0.000000   0.000000   8.904631 )  

     reciprocal axes: (cart. coord. in units 2 pi/alat)
               b(1) = (  1.000000 -0.000000  0.000000 )  
               b(2) = (  0.000000  1.000000  0.000000 )  
               b(3) = ( -0.000000 -0.000000  0.112301 )  


     PseudoPot. # 1 for Ag read from file:
     /home/ecastro/trabajo_final/pseudos/Ag.pbe-n-rrkjus_psl.1.0.0.UPF
     MD5 check sum: 81cdf87bacf708300839c66ee23ce017
     Pseudo is Ultrasoft + core correction, Zval = 11.0
     Generated using &quot;atomic&quot; code by A. Dal Corso  v.6.2.2
     Using radial grid of 1237 points,  6 beta functions with: 
                l(1) =   0
                l(2) =   0
                l(3) =   1
                l(4) =   1
                l(5) =   2
                l(6) =   2
     Q(r) pseudized with 0 coefficients 


     PseudoPot. # 2 for Li read from file:
     /home/ecastro/trabajo_final/pseudos/Li.pbe-s-rrkjus_psl.1.0.0.UPF
     MD5 check sum: 9f98d2529904d60b716d33989e9bc179
     Pseudo is Ultrasoft, Zval =  3.0
     Generated using &quot;atomic&quot; code by A. Dal Corso  v.6.3MaX
     Using radial grid of 1017 points,  4 beta functions with: 
                l(1) =   0
                l(2) =   0
                l(3) =   1
                l(4) =   1
     Q(r) pseudized with 0 coefficients 


     atomic species   valence    mass     pseudopotential
        Ag            11.00   107.86820     Ag( 1.00)
        Li             3.00     6.94100     Li( 1.00)

     No symmetry found



   Cartesian axes

     site n.     atom                  positions (alat units)
         1           Ag  tau(   1) = (   0.2499980   0.2499997   5.6981983  )
         2           Ag  tau(   2) = (   0.2500000   0.2500000   4.7023156  )
         3           Ag  tau(   3) = (   0.2500000   0.2500000   3.7023156  )
         4           Li  tau(   4) = (   0.7499992   0.7500002   5.2089093  )
         5           Li  tau(   5) = (   0.7500000   0.7500000   4.2023156  )
         6           Li  tau(   6) = (   0.7500000   0.7500000   3.2023156  )
         7           Li  tau(   7) = (   0.7499980   0.7499997   6.3386614  )

     --------------------------------------------
     DFT-D3 Dispersion Correction (no 3-body):
     --------------------------------------------
       Reference C6 values for interpolation: 

         atom   Coordination number   C6
         Li         0.000          2326.89
         Li         0.987           170.64
         Ag         0.000           853.49
         Ag         0.968           537.23

       Values used:

         atom   Coordination number  R0_AB[au]  C6      C8
         Ag         8.794            3.147    537.23  47741.54
         Ag        10.130            3.147    537.23  47741.54
         Ag         9.669            3.147    537.23  47741.54
         Li        10.751            3.303    170.64  12899.87
         Li        11.180            3.303    170.64  12899.87
         Li         6.833            3.303    170.64  12899.87
         Li         5.461            3.303    170.64  12899.87

         Molecular C6 ( Ry / a.u.^6 ) =     14508.77


     number of k points=    34  Methfessel-Paxton smearing, width (Ry)=  0.0300
                       cart. coord. in units 2pi/alat
        k(    1) = (   0.0000000   0.0000000   0.0000000), wk =   0.0312500
        k(    2) = (   0.0000000   0.1250000   0.0000000), wk =   0.0625000
        k(    3) = (   0.0000000   0.2500000   0.0000000), wk =   0.0625000
        k(    4) = (   0.0000000   0.3750000   0.0000000), wk =   0.0625000
        k(    5) = (   0.0000000  -0.5000000   0.0000000), wk =   0.0312500
        k(    6) = (   0.1250000  -0.0000000   0.0000000), wk =   0.0625000
        k(    7) = (   0.1250000   0.1250000   0.0000000), wk =   0.0625000
        k(    8) = (   0.1250000   0.2500000   0.0000000), wk =   0.0625000
        k(    9) = (   0.1250000   0.3750000   0.0000000), wk =   0.0625000
        k(   10) = (   0.1250000  -0.5000000   0.0000000), wk =   0.0625000
        k(   11) = (   0.1250000  -0.3750000   0.0000000), wk =   0.0625000
        k(   12) = (   0.1250000  -0.2500000   0.0000000), wk =   0.0625000
        k(   13) = (   0.1250000  -0.1250000   0.0000000), wk =   0.0625000
        k(   14) = (   0.2500000  -0.0000000   0.0000000), wk =   0.0625000
        k(   15) = (   0.2500000   0.1250000   0.0000000), wk =   0.0625000
        k(   16) = (   0.2500000   0.2500000   0.0000000), wk =   0.0625000
        k(   17) = (   0.2500000   0.3750000   0.0000000), wk =   0.0625000
        k(   18) = (   0.2500000  -0.5000000   0.0000000), wk =   0.0625000
        k(   19) = (   0.2500000  -0.3750000   0.0000000), wk =   0.0625000
        k(   20) = (   0.2500000  -0.2500000   0.0000000), wk =   0.0625000
        k(   21) = (   0.2500000  -0.1250000   0.0000000), wk =   0.0625000
        k(   22) = (   0.3750000  -0.0000000   0.0000000), wk =   0.0625000
        k(   23) = (   0.3750000   0.1250000   0.0000000), wk =   0.0625000
        k(   24) = (   0.3750000   0.2500000   0.0000000), wk =   0.0625000
        k(   25) = (   0.3750000   0.3750000   0.0000000), wk =   0.0625000
        k(   26) = (   0.3750000  -0.5000000   0.0000000), wk =   0.0625000
        k(   27) = (   0.3750000  -0.3750000   0.0000000), wk =   0.0625000
        k(   28) = (   0.3750000  -0.2500000   0.0000000), wk =   0.0625000
        k(   29) = (   0.3750000  -0.1250000   0.0000000), wk =   0.0625000
        k(   30) = (  -0.5000000   0.0000000   0.0000000), wk =   0.0312500
        k(   31) = (  -0.5000000   0.1250000   0.0000000), wk =   0.0625000
        k(   32) = (  -0.5000000   0.2500000   0.0000000), wk =   0.0625000
        k(   33) = (  -0.5000000   0.3750000   0.0000000), wk =   0.0625000
        k(   34) = (  -0.5000000  -0.5000000   0.0000000), wk =   0.0312500

     Dense  grid:   345099 G-vectors     FFT dimensions: (  45,  45, 375)

     Smooth grid:   100593 G-vectors     FFT dimensions: (  27,  27, 250)

     Estimated max dynamical RAM per process >      12.05 MB

     Estimated total dynamical RAM >       2.77 GB
     Cannot read rho : file not found

     Initial potential from superposition of free atoms

     starting charge      44.9804, renormalised to      45.0000

     negative rho (up, down):  3.265E-05 0.000E+00
     Message from routine qexsd_readschema :
     xml data file ./LiAg_mp-2426_100_bridge_1/LiAg_mp-2426_100_bridge_1.save/data-fi
     Cannot read wfcs: file not found
     Starting wfcs are   47 randomized atomic wfcs

     total cpu time spent up to now is        2.4 secs

     per-process dynamical memory:   171.0 Mb

     Self-consistent Calculation

     iteration #  1     ecut=    55.00 Ry     beta= 0.30
     Davidson diagonalization with overlap
     ethr =  1.00E-05,  avg # of iterations = 14.0

     negative rho (up, down):  2.675E-05 0.000E+00

     total cpu time spent up to now is        3.4 secs

     total energy              =    -312.14024362 Ry
     estimated scf accuracy    <       0.77618486 Ry

     iteration #  2     ecut=    55.00 Ry     beta= 0.30
     Davidson diagonalization with overlap
     ethr =  1.72E-03,  avg # of iterations =  5.7

     negative rho (up, down):  1.131E-04 0.000E+00

     total cpu time spent up to now is        4.0 secs

     total energy              =    -311.47973369 Ry
     estimated scf accuracy    <      17.56147931 Ry

     iteration #  3     ecut=    55.00 Ry     beta= 0.30
     Davidson diagonalization with overlap
     ethr =  1.72E-03,  avg # of iterations =  5.8

     negative rho (up, down):  1.417E-04 0.000E+00

     total cpu time spent up to now is        4.6 secs

     total energy              =    -312.20059425 Ry
     estimated scf accuracy    <       6.22785409 Ry

     iteration #  4     ecut=    55.00 Ry     beta= 0.30
     Davidson diagonalization with overlap
     ethr =  1.72E-03,  avg # of iterations =  2.1

     negative rho (up, down):  7.656E-05 0.000E+00

     total cpu time spent up to now is        5.2 secs

     total energy              =    -312.40095052 Ry
     estimated scf accuracy    <       0.14360192 Ry

     iteration #  5     ecut=    55.00 Ry     beta= 0.30
     Davidson diagonalization with overlap
     ethr =  3.19E-04,  avg # of iterations =  4.1

     negative rho (up, down):  3.504E-05 0.000E+00

     total cpu time spent up to now is        5.5 secs

     total energy              =    -312.40419304 Ry
     estimated scf accuracy    <       0.02591790 Ry

     iteration #  6     ecut=    55.00 Ry     beta= 0.30
     Davidson diagonalization with overlap
     ethr =  5.76E-05,  avg # of iterations =  5.9

     negative rho (up, down):  1.888E-05 0.000E+00

     total cpu time spent up to now is        5.8 secs

     total energy              =    -312.40569955 Ry
     estimated scf accuracy    <       0.00185144 Ry

     iteration #  7     ecut=    55.00 Ry     beta= 0.30
     Davidson diagonalization with overlap
     ethr =  4.11E-06,  avg # of iterations =  6.1

     negative rho (up, down):  1.865E-05 0.000E+00

     total cpu time spent up to now is        6.1 secs

     total energy              =    -312.40590651 Ry
     estimated scf accuracy    <       0.00042144 Ry

     iteration #  8     ecut=    55.00 Ry     beta= 0.30
     Davidson diagonalization with overlap
     ethr =  9.37E-07,  avg # of iterations =  2.9

     negative rho (up, down):  1.695E-05 0.000E+00

     total cpu time spent up to now is        6.3 secs

     total energy              =    -312.40594955 Ry
     estimated scf accuracy    <       0.00015172 Ry

     iteration #  9     ecut=    55.00 Ry     beta= 0.30
     Davidson diagonalization with overlap
     ethr =  3.37E-07,  avg # of iterations =  1.7

     negative rho (up, down):  1.485E-05 0.000E+00

     total cpu time spent up to now is        6.5 secs

     total energy              =    -312.40595400 Ry
     estimated scf accuracy    <       0.00002946 Ry

     iteration # 10     ecut=    55.00 Ry     beta= 0.30
     Davidson diagonalization with overlap
     ethr =  6.55E-08,  avg # of iterations =  2.5

     negative rho (up, down):  1.188E-05 0.000E+00

     total cpu time spent up to now is        6.7 secs

     total energy              =    -312.40595855 Ry
     estimated scf accuracy    <       0.00000878 Ry

     iteration # 11     ecut=    55.00 Ry     beta= 0.30
     Davidson diagonalization with overlap
     ethr =  1.95E-08,  avg # of iterations =  2.8

     negative rho (up, down):  9.808E-06 0.000E+00

     total cpu time spent up to now is        6.9 secs

     total energy              =    -312.40595897 Ry
     estimated scf accuracy    <       0.00000141 Ry

     iteration # 12     ecut=    55.00 Ry     beta= 0.30
     Davidson diagonalization with overlap
     ethr =  3.14E-09,  avg # of iterations =  3.3

     negative rho (up, down):  8.051E-06 0.000E+00

     total cpu time spent up to now is        7.1 secs

     End of self-consistent calculation

          k = 0.0000 0.0000 0.0000 ( 12493 PWs)   bands (ev):

   -45.9449 -45.5344 -44.6283 -44.6078  -4.8612  -4.5296  -4.3208  -4.2576
    -4.1638  -4.1053  -3.9739  -3.3894  -3.2699  -3.2699  -3.0211  -3.0211
    -2.7894  -2.7894  -2.7847  -2.7581  -2.5478  -2.0953  -0.4654   0.7182
     1.7848   3.2047   4.1266   4.1598

          k = 0.0000 0.1250 0.0000 ( 12528 PWs)   bands (ev):

   -45.9443 -45.5337 -44.6275 -44.6071  -4.6503  -4.3484  -4.1853  -4.1303
    -4.0507  -4.0348  -3.8399  -3.4849  -3.3009  -3.2520  -3.1450  -3.0090
    -2.8891  -2.8720  -2.8360  -2.7785  -2.6258  -1.9539  -0.2329   0.9009
     2.0096   3.4154   4.3613   4.3811

          k = 0.0000 0.2500 0.0000 ( 12550 PWs)   bands (ev):

   -45.9426 -45.5319 -44.6256 -44.6051  -4.3703  -4.1578  -4.0639  -3.9330
    -3.8171  -3.5758  -3.5130  -3.3448  -3.2817  -3.2087  -3.1911  -3.0728
    -3.0273  -2.9676  -2.8070  -2.7963  -2.7546  -1.5529   0.3296   1.4226
     2.5793   3.8207   4.5307   4.7242

          k = 0.0000 0.3750 0.0000 ( 12594 PWs)   bands (ev):

   -45.9411 -45.5302 -44.6236 -44.6032  -4.2476  -4.0902  -4.0490  -3.9823
    -3.8330  -3.7319  -3.4009  -3.2684  -3.2614  -3.1976  -3.1624  -2.9810
    -2.9396  -2.7305  -2.7193  -2.0189  -1.5500  -0.6436   0.9747   1.9431
     2.0302   2.3316   3.7198   3.9112

          k = 0.0000-0.5000 0.0000 ( 12618 PWs)   bands (ev):

   -45.9404 -45.5295 -44.6229 -44.6024  -4.2062  -4.1933  -4.0071  -3.9460
    -3.8293  -3.7916  -3.4720  -3.3359  -3.2670  -3.2269  -3.1441  -3.0496
    -2.9276  -2.7203  -2.5166  -0.3480   0.0060   0.0348   0.5323   0.7563
     1.0350   1.3215   4.1797   4.4300

          k = 0.1250-0.0000 0.0000 ( 12528 PWs)   bands (ev):

   -45.9443 -45.5337 -44.6275 -44.6071  -4.6503  -4.3484  -4.1853  -4.1303
    -4.0507  -4.0348  -3.8399  -3.4849  -3.3009  -3.2520  -3.1450  -3.0090
    -2.8891  -2.8720  -2.8360  -2.7784  -2.6258  -1.9539  -0.2329   0.9009
     2.0096   3.4154   4.3613   4.3812

          k = 0.1250 0.1250 0.0000 ( 12540 PWs)   bands (ev):

   -45.9436 -45.5330 -44.6267 -44.6062  -4.4031  -4.1264  -4.0758  -4.0710
    -3.9758  -3.8717  -3.7862  -3.5110  -3.3943  -3.2616  -3.1282  -3.1179
    -2.9563  -2.9218  -2.8685  -2.8660  -2.7037  -1.7977   0.0106   1.0944
     2.2472   3.6441   4.5968   4.6127

          k = 0.1250 0.2500 0.0000 ( 12575 PWs)   bands (ev):

   -45.9420 -45.5313 -44.6248 -44.6043  -4.1296  -4.0086  -3.9365  -3.8108
    -3.7311  -3.5825  -3.5185  -3.4079  -3.3545  -3.2856  -3.2046  -3.1326
    -3.0807  -3.0595  -2.9211  -2.8520  -2.5533  -1.3404   0.6080   1.6487
     2.8563   4.1149   4.7007   4.9867

          k = 0.1250 0.3750 0.0000 ( 12609 PWs)   bands (ev):

   -45.9404 -45.5296 -44.6229 -44.6024  -4.0852  -4.0205  -3.9317  -3.8383
    -3.7217  -3.6352  -3.4480  -3.3951  -3.3895  -3.3599  -3.2095  -3.1653
    -3.0483  -2.8321  -2.6729  -1.8518  -1.3273  -0.3633   1.3156   2.2209
     2.2739   2.6196   3.9350   4.1223

          k = 0.1250-0.5000 0.0000 ( 12650 PWs)   bands (ev):

   -45.9398 -45.5289 -44.6222 -44.6017  -4.1877  -3.9759  -3.8933  -3.8182
    -3.7901  -3.5886  -3.5272  -3.4702  -3.4490  -3.3640  -3.2428  -3.1729
    -3.0228  -2.8167  -2.4876  -0.2515   0.1958   0.2780   0.8629   0.9995
     1.4440   1.7013   4.3498   4.6189

          k = 0.1250-0.3750 0.0000 ( 12609 PWs)   bands (ev):

   -45.9404 -45.5296 -44.6229 -44.6024  -4.0852  -4.0205  -3.9317  -3.8383
    -3.7217  -3.6352  -3.4480  -3.3951  -3.3895  -3.3599  -3.2095  -3.1653
    -3.0483  -2.8321  -2.6729  -1.8518  -1.3273  -0.3633   1.3156   2.2209
     2.2739   2.6196   3.9350   4.1223

          k = 0.1250-0.2500 0.0000 ( 12575 PWs)   bands (ev):

   -45.9420 -45.5313 -44.6248 -44.6043  -4.1296  -4.0086  -3.9365  -3.8108
    -3.7311  -3.5825  -3.5185  -3.4079  -3.3545  -3.2856  -3.2046  -3.1326
    -3.0807  -3.0595  -2.9211  -2.8520  -2.5533  -1.3404   0.6080   1.6487
     2.8563   4.1149   4.7006   4.9866

          k = 0.1250-0.1250 0.0000 ( 12540 PWs)   bands (ev):

   -45.9436 -45.5330 -44.6267 -44.6062  -4.4031  -4.1264  -4.0758  -4.0710
    -3.9758  -3.8717  -3.7862  -3.5110  -3.3943  -3.2616  -3.1282  -3.1179
    -2.9563  -2.9218  -2.8685  -2.8660  -2.7037  -1.7977   0.0106   1.0944
     2.2472   3.6441   4.5968   4.6127

          k = 0.2500-0.0000 0.0000 ( 12550 PWs)   bands (ev):

   -45.9426 -45.5319 -44.6256 -44.6051  -4.3703  -4.1578  -4.0639  -3.9330
    -3.8171  -3.5758  -3.5130  -3.3448  -3.2817  -3.2087  -3.1911  -3.0728
    -3.0273  -2.9676  -2.8070  -2.7963  -2.7546  -1.5529   0.3296   1.4226
     2.5793   3.8207   4.5306   4.7241

          k = 0.2500 0.1250 0.0000 ( 12575 PWs)   bands (ev):

   -45.9420 -45.5313 -44.6248 -44.6043  -4.1296  -4.0086  -3.9365  -3.8108
    -3.7311  -3.5825  -3.5185  -3.4079  -3.3545  -3.2856  -3.2046  -3.1326
    -3.0807  -3.0595  -2.9211  -2.8520  -2.5533  -1.3404   0.6080   1.6487
     2.8563   4.1149   4.7006   4.9866

          k = 0.2500 0.2500 0.0000 ( 12610 PWs)   bands (ev):

   -45.9405 -45.5296 -44.6230 -44.6025  -3.9584  -3.8286  -3.7374  -3.6798
    -3.6352  -3.5701  -3.4698  -3.4540  -3.4015  -3.2918  -3.2855  -3.2260
    -3.1478  -3.0478  -2.9716  -2.6267  -1.9572  -0.7321   1.3026   2.2922
     3.5979   4.4504   4.9082   5.2793

          k = 0.2500 0.3750 0.0000 ( 12622 PWs)   bands (ev):

   -45.9388 -45.5279 -44.6210 -44.6006  -4.0701  -3.8715  -3.8348  -3.8014
    -3.7477  -3.6731  -3.5578  -3.4675  -3.3479  -3.3052  -3.2496  -3.1271
    -3.0646  -2.9513  -2.6186  -1.3988  -0.7212   0.3760   2.1760   2.6276
     3.1414   3.3024   4.5208   4.7156

          k = 0.2500-0.5000 0.0000 ( 12660 PWs)   bands (ev):

   -45.9383 -45.5273 -44.6203 -44.5999  -4.1748  -3.9060  -3.8772  -3.8227
    -3.7775  -3.7405  -3.6321  -3.4581  -3.3991  -3.2998  -3.2251  -3.0963
    -3.0375  -2.8662  -2.4387   0.0800   0.6953   0.8687   1.6134   1.6972
     2.4302   2.7069   4.8402   5.1790

          k = 0.2500-0.3750 0.0000 ( 12622 PWs)   bands (ev):

   -45.9388 -45.5279 -44.6210 -44.6006  -4.0701  -3.8715  -3.8348  -3.8014
    -3.7477  -3.6731  -3.5578  -3.4675  -3.3479  -3.3052  -3.2496  -3.1271
    -3.0646  -2.9513  -2.6186  -1.3988  -0.7212   0.3760   2.1760   2.6276
     3.1414   3.3024   4.5208   4.7156

          k = 0.2500-0.2500 0.0000 ( 12610 PWs)   bands (ev):

   -45.9405 -45.5296 -44.6230 -44.6025  -3.9584  -3.8286  -3.7374  -3.6798
    -3.6352  -3.5701  -3.4698  -3.4540  -3.4015  -3.2918  -3.2855  -3.2260
    -3.1478  -3.0478  -2.9716  -2.6267  -1.9572  -0.7321   1.3026   2.2922
     3.5979   4.4504   4.9084   5.2794

          k = 0.2500-0.1250 0.0000 ( 12575 PWs)   bands (ev):

   -45.9420 -45.5313 -44.6248 -44.6043  -4.1296  -4.0086  -3.9365  -3.8108
    -3.7311  -3.5825  -3.5185  -3.4079  -3.3545  -3.2856  -3.2046  -3.1326
    -3.0807  -3.0595  -2.9211  -2.8520  -2.5533  -1.3404   0.6080   1.6487
     2.8563   4.1148   4.7004   4.9862

          k = 0.3750-0.0000 0.0000 ( 12594 PWs)   bands (ev):

   -45.9411 -45.5302 -44.6236 -44.6032  -4.2476  -4.0902  -4.0490  -3.9823
    -3.8330  -3.7319  -3.4009  -3.2684  -3.2614  -3.1976  -3.1624  -2.9810
    -2.9396  -2.7305  -2.7193  -2.0189  -1.5500  -0.6436   0.9747   1.9431
     2.0302   2.3316   3.7198   3.9112

          k = 0.3750 0.1250 0.0000 ( 12609 PWs)   bands (ev):

   -45.9404 -45.5296 -44.6229 -44.6024  -4.0852  -4.0205  -3.9317  -3.8383
    -3.7217  -3.6352  -3.4480  -3.3951  -3.3895  -3.3599  -3.2095  -3.1653
    -3.0483  -2.8321  -2.6729  -1.8518  -1.3273  -0.3633   1.3156   2.2209
     2.2739   2.6196   3.9350   4.1223

          k = 0.3750 0.2500 0.0000 ( 12622 PWs)   bands (ev):

   -45.9388 -45.5279 -44.6210 -44.6006  -4.0701  -3.8715  -3.8348  -3.8014
    -3.7476  -3.6731  -3.5578  -3.4675  -3.3479  -3.3052  -3.2496  -3.1271
    -3.0646  -2.9513  -2.6186  -1.3988  -0.7212   0.3760   2.1760   2.6276
     3.1414   3.3024   4.5208   4.7157

          k = 0.3750 0.3750 0.0000 ( 12670 PWs)   bands (ev):

   -45.9374 -45.5263 -44.6193 -44.5989  -4.1120  -4.0904  -4.0647  -4.0307
    -3.8374  -3.7857  -3.6463  -3.6379  -3.3021  -3.2593  -3.0977  -2.7510
    -2.6752  -2.5802  -2.4980  -0.4474   0.3663   1.5403   2.5007   3.3059
     3.4553   4.4020   4.7229   5.5776

          k = 0.3750-0.5000 0.0000 ( 12656 PWs)   bands (ev):

   -45.9367 -45.5256 -44.6185 -44.5980  -4.2150  -4.1988  -4.1601  -4.0432
    -3.9431  -3.7548  -3.7314  -3.6229  -3.3515  -3.2610  -3.0676  -2.5920
    -2.5617  -2.4422  -2.3018   0.8186   1.4121   1.6543   2.3584   2.8390
     3.5259   4.1274   5.4671   5.5629

          k = 0.3750-0.3750 0.0000 ( 12670 PWs)   bands (ev):

   -45.9374 -45.5263 -44.6193 -44.5989  -4.1120  -4.0904  -4.0647  -4.0307
    -3.8374  -3.7857  -3.6463  -3.6379  -3.3021  -3.2593  -3.0977  -2.7510
    -2.6752  -2.5802  -2.4980  -0.4474   0.3663   1.5403   2.5007   3.3059
     3.4553   4.4020   4.7229   5.5773

          k = 0.3750-0.2500 0.0000 ( 12622 PWs)   bands (ev):

   -45.9388 -45.5279 -44.6210 -44.6006  -4.0701  -3.8715  -3.8348  -3.8014
    -3.7476  -3.6731  -3.5578  -3.4675  -3.3479  -3.3052  -3.2496  -3.1271
    -3.0646  -2.9513  -2.6186  -1.3988  -0.7212   0.3760   2.1760   2.6276
     3.1414   3.3024   4.5208   4.7156

          k = 0.3750-0.1250 0.0000 ( 12609 PWs)   bands (ev):

   -45.9404 -45.5296 -44.6229 -44.6024  -4.0852  -4.0205  -3.9317  -3.8383
    -3.7217  -3.6352  -3.4480  -3.3951  -3.3895  -3.3599  -3.2095  -3.1653
    -3.0483  -2.8321  -2.6729  -1.8518  -1.3273  -0.3633   1.3156   2.2209
     2.2739   2.6196   3.9350   4.1223

          k =-0.5000 0.0000 0.0000 ( 12618 PWs)   bands (ev):

   -45.9404 -45.5295 -44.6229 -44.6024  -4.2062  -4.1933  -4.0071  -3.9460
    -3.8293  -3.7916  -3.4720  -3.3359  -3.2670  -3.2269  -3.1441  -3.0496
    -2.9276  -2.7203  -2.5166  -0.3480   0.0060   0.0348   0.5323   0.7563
     1.0350   1.3215   4.4295   4.5073

          k =-0.5000 0.1250 0.0000 ( 12650 PWs)   bands (ev):

   -45.9398 -45.5289 -44.6222 -44.6017  -4.1877  -3.9759  -3.8933  -3.8182
    -3.7901  -3.5886  -3.5272  -3.4702  -3.4490  -3.3640  -3.2428  -3.1729
    -3.0228  -2.8167  -2.4876  -0.2515   0.1958   0.2780   0.8629   0.9995
     1.4440   1.7013   4.3498   4.6191

          k =-0.5000 0.2500 0.0000 ( 12660 PWs)   bands (ev):

   -45.9383 -45.5273 -44.6203 -44.5999  -4.1748  -3.9060  -3.8772  -3.8227
    -3.7775  -3.7405  -3.6321  -3.4581  -3.3991  -3.2998  -3.2251  -3.0963
    -3.0375  -2.8662  -2.4387   0.0800   0.6953   0.8687   1.6134   1.6972
     2.4302   2.7069   4.8402   5.1790

          k =-0.5000 0.3750 0.0000 ( 12656 PWs)   bands (ev):

   -45.9367 -45.5256 -44.6185 -44.5980  -4.2150  -4.1988  -4.1601  -4.0432
    -3.9431  -3.7548  -3.7314  -3.6228  -3.3515  -3.2610  -3.0676  -2.5920
    -2.5617  -2.4422  -2.3018   0.8186   1.4121   1.6543   2.3584   2.8390
     3.5259   4.1273   5.4670   5.5629

          k =-0.5000-0.5000 0.0000 ( 12564 PWs)   bands (ev):

   -45.9358 -45.5246 -44.6175 -44.5970  -4.3289  -4.3185  -4.1554  -4.1554
    -4.0583  -3.7430  -3.7430  -3.6589  -3.3311  -3.3311  -3.0292  -2.4551
    -2.2927  -2.2752  -2.0849   1.6313   1.6313   2.6807   2.6807   3.9111
     4.0468   4.0468   4.4657   5.4517

     the Fermi energy is     1.1556 ev

!    total energy              =    -312.40595919 Ry
     estimated scf accuracy    <       0.00000008 Ry
     smearing contrib. (-TS)   =       0.00077645 Ry
     internal energy E=F+TS    =    -312.40673564 Ry

     The total energy is F=E-TS. E is the sum of the following terms:
     one-electron contribution =   -2696.45177275 Ry
     hartree contribution      =    1366.63667260 Ry
     xc contribution           =     -81.42589662 Ry
     ewald contribution        =    1098.94431961 Ry
     DFT-D3 Dispersion         =      -0.11005849 Ry

     convergence has been achieved in  12 iterations

     negative rho (up, down):  8.051E-06 0.000E+00

     Forces acting on atoms (cartesian axes, Ry/au):

     atom    1 type  1   force =     0.00000006   -0.00000143    0.01551223
     atom    2 type  1   force =     0.00000178    0.00000169    0.00136833
     atom    3 type  1   force =    -0.00000079   -0.00000017    0.00228661
     atom    4 type  2   force =    -0.00000069   -0.00000046   -0.00135167
     atom    5 type  2   force =     0.00000007   -0.00000000    0.00047891
     atom    6 type  2   force =    -0.00000023    0.00000022   -0.00033162
     atom    7 type  2   force =    -0.00000021    0.00000015   -0.01796279
     The non-local contrib.  to forces
     atom    1 type  1   force =    -0.00000038   -0.00000141   -0.00900617
     atom    2 type  1   force =     0.00000195   -0.00000030   -0.00218824
     atom    3 type  1   force =     0.00000028    0.00000053    0.02597948
     atom    4 type  2   force =    -0.00000467   -0.00000441   -0.00113734
     atom    5 type  2   force =    -0.00000423   -0.00000427    0.00013733
     atom    6 type  2   force =    -0.00000833   -0.00000822   -0.05746121
     atom    7 type  2   force =    -0.00001477   -0.00001497    0.04052887
     The ionic contribution  to forces
     atom    1 type  1   force =     0.00000289    0.00000151   71.00221601
     atom    2 type  1   force =    -0.00000059    0.00000098    0.27890247
     atom    3 type  1   force =    -0.00000000    0.00000000  -71.03170798
     atom    4 type  2   force =    -0.00000230   -0.00000246    9.85489038
     atom    5 type  2   force =     0.00000004   -0.00000002   -9.58709186
     atom    6 type  2   force =     0.00000000   -0.00000000  -27.49732473
     atom    7 type  2   force =    -0.00000004   -0.00000001   26.98011571
     The local contribution  to forces
     atom    1 type  1   force =    -0.00000355   -0.00000167  -70.97028803
     atom    2 type  1   force =    -0.00000120   -0.00000094   -0.27505344
     atom    3 type  1   force =     0.00000076    0.00000059   71.00371351
     atom    4 type  2   force =     0.00000702    0.00000656   -9.85382834
     atom    5 type  2   force =     0.00000377    0.00000367    9.58618799
     atom    6 type  2   force =     0.00000797    0.00000829   27.55247016
     atom    7 type  2   force =     0.00001548    0.00001529  -27.03768632
     The core correction contribution to forces
     atom    1 type  1   force =    -0.00000007   -0.00000003   -0.00326572
     atom    2 type  1   force =    -0.00000006   -0.00000010   -0.00021672
     atom    3 type  1   force =     0.00000004    0.00000003   -0.00011959
     atom    4 type  2   force =     0.00000000    0.00000000    0.00000000
     atom    5 type  2   force =     0.00000000    0.00000000    0.00000000
     atom    6 type  2   force =     0.00000000    0.00000000    0.00000000
     atom    7 type  2   force =     0.00000000    0.00000000    0.00000000
     The Hubbard contrib.    to forces
     atom    1 type  1   force =     0.00000000    0.00000000    0.00000000
     atom    2 type  1   force =     0.00000000    0.00000000    0.00000000
     atom    3 type  1   force =     0.00000000    0.00000000    0.00000000
     atom    4 type  2   force =     0.00000000    0.00000000    0.00000000
     atom    5 type  2   force =     0.00000000    0.00000000    0.00000000
     atom    6 type  2   force =     0.00000000    0.00000000    0.00000000
     atom    7 type  2   force =     0.00000000    0.00000000    0.00000000
     The SCF correction term to forces
     atom    1 type  1   force =     0.00000123    0.00000021    0.00050948
     atom    2 type  1   force =     0.00000171    0.00000210    0.00018132
     atom    3 type  1   force =    -0.00000181   -0.00000127    0.00040729
     atom    4 type  2   force =    -0.00000071   -0.00000011    0.00021769
     atom    5 type  2   force =     0.00000055    0.00000067    0.00005441
     atom    6 type  2   force =     0.00000018    0.00000019   -0.00015620
     atom    7 type  2   force =    -0.00000084   -0.00000010    0.00028439

     DFT-D3 dispersion contribution to forces:
     atom    1 type  1   force =    -0.00000001   -0.00000000   -0.00461555
     atom    2 type  1   force =     0.00000001    0.00000000   -0.00021925
     atom    3 type  1   force =    -0.00000000    0.00000000    0.00405170
     atom    4 type  2   force =     0.00000000    0.00000000   -0.00145626
     atom    5 type  2   force =     0.00000000   -0.00000000    0.00122886
     atom    6 type  2   force =    -0.00000000    0.00000000    0.00217815
     atom    7 type  2   force =    -0.00000000   -0.00000000   -0.00116764

     Total force =     0.023928     Total SCF correction =     0.000784


     Computing stress (Cartesian axis) and pressure


     negative rho (up, down):  8.051E-06 0.000E+00
          total   stress  (Ry/bohr**3)                   (kbar)     P=      -14.52
  -0.00009639   0.00000000   0.00000000          -14.18        0.00        0.00
   0.00000000  -0.00009639  -0.00000000            0.00      -14.18       -0.00
   0.00000000  -0.00000000  -0.00010326            0.00       -0.00      -15.19


     BFGS Geometry Optimization
     Energy error            =      0.0E+00 Ry
     Gradient error          =      1.8E-02 Ry/Bohr

     number of scf cycles    =   1
     number of bfgs steps    =   0

     energy             new  =    -312.4059591884 Ry

     new trust radius        =       0.0179627919 bohr
     new conv_thr            =       0.0000010000 Ry


ATOMIC_POSITIONS (angstrom)
Ag            0.7806787956        0.7806835242       17.8022024161
Ag            0.7806860228        0.7806859775       14.6848345856
Ag            0.7806846668        0.7806849923       11.5625801891
Li            2.3420524869        2.3420555544       16.2653557860
Li            2.3420552863        2.3420552474       13.1229937584
Li            2.3420551279        2.3420553627        9.9998245131
Li            2.3420488173        2.3420545239       19.7844881984



     Writing config-only to output data dir ./LiAg_mp-2426_100_bridge_1/LiAg_mp-2426_100_bridge_1.save/
     NEW-OLD atomic charge density approx. for the potential

     negative rho (up, down):  8.072E-06 0.000E+00

     total cpu time spent up to now is        7.9 secs

     per-process dynamical memory:   198.7 Mb

     Self-consistent Calculation

     iteration #  1     ecut=    55.00 Ry     beta= 0.30
     Davidson diagonalization with overlap
     ethr =  1.00E-06,  avg # of iterations =  4.6

     negative rho (up, down):  8.084E-06 0.000E+00

     total cpu time spent up to now is        8.3 secs

     total energy              =    -312.40645288 Ry
     estimated scf accuracy    <       0.00015386 Ry

     iteration #  2     ecut=    55.00 Ry     beta= 0.30
     Davidson diagonalization with overlap
     ethr =  3.42E-07,  avg # of iterations =  4.2

     negative rho (up, down):  9.463E-06 0.000E+00

     total cpu time spent up to now is        8.5 secs

     total energy              =    -312.40613474 Ry
     estimated scf accuracy    <       0.01554859 Ry

     iteration #  3     ecut=    55.00 Ry     beta= 0.30
     Davidson diagonalization with overlap
     ethr =  3.42E-07,  avg # of iterations =  3.1

     negative rho (up, down):  1.050E-05 0.000E+00

     total cpu time spent up to now is        8.8 secs

     total energy              =    -312.40651594 Ry
     estimated scf accuracy    <       0.00003832 Ry

     iteration #  4     ecut=    55.00 Ry     beta= 0.30
     Davidson diagonalization with overlap
     ethr =  8.52E-08,  avg # of iterations =  1.7

     negative rho (up, down):  9.162E-06 0.000E+00

     total cpu time spent up to now is        8.9 secs

     total energy              =    -312.40651993 Ry
     estimated scf accuracy    <       0.00001374 Ry

     iteration #  5     ecut=    55.00 Ry     beta= 0.30
     Davidson diagonalization with overlap
     ethr =  3.05E-08,  avg # of iterations =  1.1

     negative rho (up, down):  8.135E-06 0.000E+00

     total cpu time spent up to now is        9.1 secs

     End of self-consistent calculation

          k = 0.0000 0.0000 0.0000 ( 12493 PWs)   bands (ev):

   -45.9278 -45.5326 -44.6257 -44.6068  -4.8582  -4.5275  -4.3210  -4.2552
    -4.1614  -4.1012  -3.9721  -3.3869  -3.2667  -3.2667  -3.0180  -3.0180
    -2.7897  -2.7897  -2.7823  -2.7559  -2.5456  -2.0956  -0.4608   0.7244
     1.7935   3.2059   4.1267   4.1598

          k = 0.0000 0.1250 0.0000 ( 12528 PWs)   bands (ev):

   -45.9272 -45.5319 -44.6249 -44.6060  -4.6471  -4.3462  -4.1833  -4.1283
    -4.0480  -4.0323  -3.8384  -3.4816  -3.2988  -3.2488  -3.1421  -3.0059
    -2.8895  -2.8696  -2.8338  -2.7788  -2.6237  -1.9550  -0.2281   0.9070
     2.0183   3.4172   4.3614   4.3811

          k = 0.0000 0.2500 0.0000 ( 12550 PWs)   bands (ev):

   -45.9255 -45.5301 -44.6229 -44.6041  -4.3673  -4.1554  -4.0597  -3.9315
    -3.8135  -3.5723  -3.5103  -3.3425  -3.2809  -3.2057  -3.1921  -3.0703
    -3.0249  -2.9646  -2.8048  -2.7957  -2.7549  -1.5550   0.3344   1.4284
     2.5876   3.8239   4.5322   4.7243

          k = 0.0000 0.3750 0.0000 ( 12594 PWs)   bands (ev):

   -45.9239 -45.5284 -44.6210 -44.6022  -4.2446  -4.0866  -4.0465  -3.9775
    -3.8314  -3.7290  -3.4015  -3.2660  -3.2591  -3.1952  -3.1593  -2.9788
    -2.9366  -2.7307  -2.7196  -2.0169  -1.5491  -0.6459   0.9786   1.9463
     2.0325   2.3339   3.7253   3.9132

          k = 0.0000-0.5000 0.0000 ( 12618 PWs)   bands (ev):

   -45.9233 -45.5277 -44.6202 -44.6014  -4.2032  -4.1896  -4.0046  -3.9411
    -3.8266  -3.7899  -3.4731  -3.3335  -3.2646  -3.2242  -3.1411  -3.0474
    -2.9245  -2.7205  -2.5177  -0.3454   0.0079   0.0373   0.5322   0.7550
     1.0329   1.3237   4.1905   4.4318

          k = 0.1250-0.0000 0.0000 ( 12528 PWs)   bands (ev):

   -45.9272 -45.5319 -44.6249 -44.6060  -4.6471  -4.3462  -4.1833  -4.1283
    -4.0480  -4.0323  -3.8384  -3.4816  -3.2988  -3.2488  -3.1421  -3.0059
    -2.8895  -2.8696  -2.8338  -2.7788  -2.6237  -1.9550  -0.2281   0.9070
     2.0183   3.4172   4.3614   4.3811

          k = 0.1250 0.1250 0.0000 ( 12540 PWs)   bands (ev):

   -45.9265 -45.5311 -44.6241 -44.6052  -4.3996  -4.1240  -4.0734  -4.0673
    -3.9733  -3.8715  -3.7844  -3.5075  -3.3912  -3.2597  -3.1258  -3.1148
    -2.9539  -2.9197  -2.8690  -2.8660  -2.7015  -1.7992   0.0156   1.1005
     2.2557   3.6463   4.5970   4.6129

          k = 0.1250 0.2500 0.0000 ( 12575 PWs)   bands (ev):

   -45.9249 -45.5294 -44.6222 -44.6033  -4.1257  -4.0050  -3.9339  -3.8073
    -3.7296  -3.5789  -3.5158  -3.4053  -3.3520  -3.2843  -3.2048  -3.1308
    -3.0782  -3.0574  -2.9202  -2.8519  -2.5521  -1.3428   0.6132   1.6546
     2.8644   4.1183   4.7021   4.9867

          k = 0.1250 0.3750 0.0000 ( 12609 PWs)   bands (ev):

   -45.9233 -45.5277 -44.6203 -44.6014  -4.0817  -4.0165  -3.9278  -3.8356
    -3.7187  -3.6334  -3.4459  -3.3936  -3.3872  -3.3588  -3.2072  -3.1635
    -3.0458  -2.8324  -2.6732  -1.8497  -1.3263  -0.3658   1.3202   2.2233
     2.2776   2.6217   3.9401   4.1244

          k = 0.1250-0.5000 0.0000 ( 12650 PWs)   bands (ev):

   -45.9227 -45.5271 -44.6196 -44.6007  -4.1841  -3.9720  -3.8893  -3.8154
    -3.7874  -3.5866  -3.5250  -3.4684  -3.4495  -3.3607  -3.2410  -3.1705
    -3.0205  -2.8169  -2.4885  -0.2490   0.1980   0.2800   0.8630   0.9981
     1.4420   1.7044   4.3614   4.6210

          k = 0.1250-0.3750 0.0000 ( 12609 PWs)   bands (ev):

   -45.9233 -45.5277 -44.6203 -44.6014  -4.0817  -4.0165  -3.9278  -3.8356
    -3.7187  -3.6334  -3.4459  -3.3936  -3.3872  -3.3588  -3.2072  -3.1635
    -3.0458  -2.8324  -2.6732  -1.8497  -1.3263  -0.3658   1.3202   2.2233
     2.2776   2.6217   3.9401   4.1244

          k = 0.1250-0.2500 0.0000 ( 12575 PWs)   bands (ev):

   -45.9249 -45.5294 -44.6222 -44.6033  -4.1257  -4.0050  -3.9339  -3.8073
    -3.7296  -3.5789  -3.5158  -3.4053  -3.3520  -3.2843  -3.2048  -3.1308
    -3.0782  -3.0574  -2.9202  -2.8519  -2.5521  -1.3428   0.6132   1.6546
     2.8644   4.1183   4.7021   4.9867

          k = 0.1250-0.1250 0.0000 ( 12540 PWs)   bands (ev):

   -45.9265 -45.5311 -44.6241 -44.6052  -4.3996  -4.1240  -4.0734  -4.0673
    -3.9733  -3.8715  -3.7844  -3.5075  -3.3912  -3.2597  -3.1258  -3.1148
    -2.9539  -2.9197  -2.8690  -2.8660  -2.7015  -1.7992   0.0156   1.1005
     2.2557   3.6463   4.5970   4.6129

          k = 0.2500-0.0000 0.0000 ( 12550 PWs)   bands (ev):

   -45.9255 -45.5301 -44.6229 -44.6041  -4.3673  -4.1554  -4.0597  -3.9315
    -3.8135  -3.5723  -3.5103  -3.3425  -3.2809  -3.2057  -3.1921  -3.0703
    -3.0249  -2.9646  -2.8048  -2.7957  -2.7549  -1.5550   0.3344   1.4284
     2.5876   3.8239   4.5322   4.7243

          k = 0.2500 0.1250 0.0000 ( 12575 PWs)   bands (ev):

   -45.9249 -45.5294 -44.6222 -44.6033  -4.1257  -4.0050  -3.9339  -3.8073
    -3.7296  -3.5789  -3.5158  -3.4053  -3.3520  -3.2843  -3.2048  -3.1308
    -3.0782  -3.0574  -2.9202  -2.8519  -2.5521  -1.3428   0.6132   1.6546
     2.8644   4.1183   4.7021   4.9868

          k = 0.2500 0.2500 0.0000 ( 12610 PWs)   bands (ev):

   -45.9233 -45.5278 -44.6203 -44.6015  -3.9534  -3.8247  -3.7339  -3.6767
    -3.6330  -3.5662  -3.4676  -3.4516  -3.4005  -3.2892  -3.2834  -3.2254
    -3.1476  -3.0485  -2.9712  -2.6248  -1.9561  -0.7350   1.3087   2.2983
     3.6054   4.4521   4.9122   5.2791

          k = 0.2500 0.3750 0.0000 ( 12622 PWs)   bands (ev):

   -45.9217 -45.5260 -44.6184 -44.5996  -4.0665  -3.8663  -3.8324  -3.7990
    -3.7439  -3.6701  -3.5566  -3.4638  -3.3474  -3.3042  -3.2469  -3.1259
    -3.0658  -2.9493  -2.6190  -1.3966  -0.7201   0.3732   2.1823   2.6296
     3.1464   3.3033   4.5248   4.7186

          k = 0.2500-0.5000 0.0000 ( 12660 PWs)   bands (ev):

   -45.9211 -45.5254 -44.6177 -44.5989  -4.1711  -3.9037  -3.8750  -3.8177
    -3.7746  -3.7363  -3.6309  -3.4543  -3.4003  -3.2972  -3.2223  -3.0953
    -3.0390  -2.8639  -2.4394   0.0824   0.6968   0.8707   1.6137   1.6953
     2.4280   2.7117   4.8545   5.1809

          k = 0.2500-0.3750 0.0000 ( 12622 PWs)   bands (ev):

   -45.9217 -45.5260 -44.6184 -44.5996  -4.0665  -3.8663  -3.8324  -3.7990
    -3.7439  -3.6701  -3.5566  -3.4638  -3.3474  -3.3042  -3.2469  -3.1259
    -3.0658  -2.9493  -2.6190  -1.3966  -0.7201   0.3732   2.1823   2.6296
     3.1464   3.3033   4.5248   4.7186

          k = 0.2500-0.2500 0.0000 ( 12610 PWs)   bands (ev):

   -45.9233 -45.5278 -44.6203 -44.6015  -3.9534  -3.8247  -3.7339  -3.6767
    -3.6330  -3.5662  -3.4676  -3.4516  -3.4005  -3.2892  -3.2834  -3.2254
    -3.1476  -3.0485  -2.9712  -2.6248  -1.9561  -0.7350   1.3087   2.2983
     3.6054   4.4521   4.9122   5.2792

          k = 0.2500-0.1250 0.0000 ( 12575 PWs)   bands (ev):

   -45.9249 -45.5294 -44.6222 -44.6033  -4.1257  -4.0050  -3.9339  -3.8073
    -3.7296  -3.5789  -3.5158  -3.4053  -3.3520  -3.2843  -3.2048  -3.1308
    -3.0782  -3.0574  -2.9202  -2.8519  -2.5521  -1.3428   0.6132   1.6546
     2.8644   4.1183   4.7021   4.9866

          k = 0.3750-0.0000 0.0000 ( 12594 PWs)   bands (ev):

   -45.9239 -45.5284 -44.6210 -44.6022  -4.2446  -4.0866  -4.0465  -3.9775
    -3.8314  -3.7290  -3.4015  -3.2660  -3.2591  -3.1952  -3.1593  -2.9788
    -2.9366  -2.7307  -2.7196  -2.0169  -1.5491  -0.6459   0.9786   1.9463
     2.0325   2.3339   3.7253   3.9132

          k = 0.3750 0.1250 0.0000 ( 12609 PWs)   bands (ev):

   -45.9233 -45.5277 -44.6203 -44.6014  -4.0817  -4.0165  -3.9278  -3.8356
    -3.7187  -3.6334  -3.4459  -3.3936  -3.3872  -3.3588  -3.2072  -3.1635
    -3.0458  -2.8324  -2.6732  -1.8497  -1.3263  -0.3658   1.3202   2.2233
     2.2776   2.6217   3.9401   4.1244

          k = 0.3750 0.2500 0.0000 ( 12622 PWs)   bands (ev):

   -45.9217 -45.5260 -44.6184 -44.5996  -4.0665  -3.8663  -3.8324  -3.7990
    -3.7439  -3.6701  -3.5566  -3.4638  -3.3474  -3.3042  -3.2469  -3.1259
    -3.0658  -2.9493  -2.6190  -1.3966  -0.7201   0.3732   2.1823   2.6296
     3.1464   3.3033   4.5248   4.7186

          k = 0.3750 0.3750 0.0000 ( 12670 PWs)   bands (ev):

   -45.9202 -45.5245 -44.6167 -44.5979  -4.1099  -4.0879  -4.0613  -4.0270
    -3.8364  -3.7804  -3.6429  -3.6346  -3.3032  -3.2604  -3.0948  -2.7489
    -2.6729  -2.5812  -2.4963  -0.4452   0.3671   1.5373   2.5024   3.3138
     3.4546   4.4087   4.7214   5.5889

          k = 0.3750-0.5000 0.0000 ( 12656 PWs)   bands (ev):

   -45.9195 -45.5237 -44.6159 -44.5970  -4.2129  -4.1965  -4.1564  -4.0395
    -3.9422  -3.7516  -3.7261  -3.6193  -3.3528  -3.2621  -3.0646  -2.5911
    -2.5603  -2.4408  -2.3005   0.8207   1.4140   1.6549   2.3581   2.8366
     3.5228   4.1343   5.4699   5.5825

          k = 0.3750-0.3750 0.0000 ( 12670 PWs)   bands (ev):

   -45.9202 -45.5245 -44.6167 -44.5979  -4.1099  -4.0879  -4.0613  -4.0270
    -3.8364  -3.7804  -3.6429  -3.6346  -3.3032  -3.2605  -3.0948  -2.7489
    -2.6729  -2.5812  -2.4963  -0.4452   0.3671   1.5373   2.5024   3.3138
     3.4546   4.4087   4.7214   5.5890

          k = 0.3750-0.2500 0.0000 ( 12622 PWs)   bands (ev):

   -45.9217 -45.5260 -44.6184 -44.5996  -4.0665  -3.8663  -3.8324  -3.7990
    -3.7439  -3.6701  -3.5566  -3.4638  -3.3474  -3.3042  -3.2469  -3.1259
    -3.0658  -2.9493  -2.6190  -1.3966  -0.7201   0.3732   2.1823   2.6296
     3.1464   3.3033   4.5248   4.7186

          k = 0.3750-0.1250 0.0000 ( 12609 PWs)   bands (ev):

   -45.9233 -45.5277 -44.6203 -44.6014  -4.0817  -4.0165  -3.9278  -3.8356
    -3.7187  -3.6334  -3.4459  -3.3936  -3.3872  -3.3588  -3.2072  -3.1635
    -3.0458  -2.8324  -2.6732  -1.8497  -1.3263  -0.3658   1.3202   2.2233
     2.2776   2.6217   3.9401   4.1244

          k =-0.5000 0.0000 0.0000 ( 12618 PWs)   bands (ev):

   -45.9233 -45.5277 -44.6202 -44.6014  -4.2032  -4.1896  -4.0046  -3.9411
    -3.8266  -3.7899  -3.4731  -3.3335  -3.2646  -3.2242  -3.1411  -3.0474
    -2.9245  -2.7205  -2.5177  -0.3454   0.0079   0.0373   0.5322   0.7550
     1.0329   1.3237   4.1905   4.4318

          k =-0.5000 0.1250 0.0000 ( 12650 PWs)   bands (ev):

   -45.9227 -45.5271 -44.6196 -44.6007  -4.1841  -3.9720  -3.8893  -3.8154
    -3.7874  -3.5866  -3.5250  -3.4684  -3.4495  -3.3607  -3.2410  -3.1705
    -3.0205  -2.8169  -2.4885  -0.2490   0.1980   0.2800   0.8630   0.9981
     1.4420   1.7043   4.3614   4.6213

          k =-0.5000 0.2500 0.0000 ( 12660 PWs)   bands (ev):

   -45.9211 -45.5254 -44.6177 -44.5989  -4.1711  -3.9037  -3.8750  -3.8177
    -3.7746  -3.7363  -3.6309  -3.4543  -3.4003  -3.2972  -3.2223  -3.0953
    -3.0390  -2.8639  -2.4394   0.0824   0.6968   0.8707   1.6137   1.6953
     2.4280   2.7117   4.8545   5.1809

          k =-0.5000 0.3750 0.0000 ( 12656 PWs)   bands (ev):

   -45.9195 -45.5237 -44.6159 -44.5970  -4.2129  -4.1965  -4.1564  -4.0395
    -3.9422  -3.7516  -3.7261  -3.6193  -3.3528  -3.2621  -3.0646  -2.5911
    -2.5603  -2.4408  -2.3005   0.8207   1.4140   1.6549   2.3581   2.8366
     3.5228   4.1343   5.4691   5.5832

          k =-0.5000-0.5000 0.0000 ( 12564 PWs)   bands (ev):

   -45.9186 -45.5228 -44.6148 -44.5960  -4.3268  -4.3162  -4.1517  -4.1517
    -4.0575  -3.7398  -3.7398  -3.6534  -3.3324  -3.3324  -3.0261  -2.4564
    -2.2902  -2.2731  -2.0830   1.6330   1.6330   2.6799   2.6799   3.9140
     4.0434   4.0435   4.4681   5.4525

     the Fermi energy is     1.1586 ev

!    total energy              =    -312.40652077 Ry
     estimated scf accuracy    <       0.00000031 Ry
     smearing contrib. (-TS)   =       0.00077903 Ry
     internal energy E=F+TS    =    -312.40729980 Ry

     The total energy is F=E-TS. E is the sum of the following terms:
     one-electron contribution =   -2695.55535772 Ry
     hartree contribution      =    1366.18543247 Ry
     xc contribution           =     -81.42618169 Ry
     ewald contribution        =    1098.49882667 Ry
     DFT-D3 Dispersion         =      -0.11001954 Ry

     convergence has been achieved in   5 iterations

     negative rho (up, down):  8.135E-06 0.000E+00

     Forces acting on atoms (cartesian axes, Ry/au):

     atom    1 type  1   force =     0.00000213    0.00000067    0.01473565
     atom    2 type  1   force =    -0.00000346   -0.00000056    0.00142718
     atom    3 type  1   force =     0.00000145   -0.00000059    0.00174016
     atom    4 type  2   force =    -0.00000033    0.00000033   -0.00076516
     atom    5 type  2   force =    -0.00000031   -0.00000031    0.00065588
     atom    6 type  2   force =    -0.00000039    0.00000025   -0.00021196
     atom    7 type  2   force =     0.00000092    0.00000021   -0.01758175
     The non-local contrib.  to forces
     atom    1 type  1   force =     0.00000407    0.00000355   -0.01028732
     atom    2 type  1   force =    -0.00000508   -0.00000044   -0.00190937
     atom    3 type  1   force =     0.00000155   -0.00000145    0.02559531
     atom    4 type  2   force =    -0.00000436   -0.00000439   -0.00085554
     atom    5 type  2   force =    -0.00000435   -0.00000465    0.00018334
     atom    6 type  2   force =    -0.00000792   -0.00000791   -0.05741917
     atom    7 type  2   force =    -0.00001362   -0.00001445    0.04113545
     The ionic contribution  to forces
     atom    1 type  1   force =     0.00000190    0.00000209   70.96043472
     atom    2 type  1   force =    -0.00000255   -0.00000060    0.30345215
     atom    3 type  1   force =     0.00000045    0.00000002  -71.01848418
     atom    4 type  2   force =    -0.00000010   -0.00000171    9.83636775
     atom    5 type  2   force =     0.00000062    0.00000100   -9.58541563
     atom    6 type  2   force =    -0.00000037   -0.00000025  -27.49388364
     atom    7 type  2   force =     0.00000006   -0.00000054   26.99752883
     The local contribution  to forces
     atom    1 type  1   force =    -0.00000097   -0.00000274  -70.92664888
     atom    2 type  1   force =     0.00000564    0.00000058   -0.30048140
     atom    3 type  1   force =     0.00000019    0.00000055   70.99117668
     atom    4 type  2   force =     0.00000363    0.00000657   -9.83510480
     atom    5 type  2   force =     0.00000326    0.00000335    9.58440337
     atom    6 type  2   force =     0.00000798    0.00000823   27.54906777
     atom    7 type  2   force =     0.00001420    0.00001489  -27.05480333
     The core correction contribution to forces
     atom    1 type  1   force =    -0.00000007   -0.00000011   -0.00307008
     atom    2 type  1   force =     0.00000019   -0.00000002   -0.00022538
     atom    3 type  1   force =    -0.00000004    0.00000003   -0.00008260
     atom    4 type  2   force =     0.00000000    0.00000000    0.00000000
     atom    5 type  2   force =     0.00000000    0.00000000    0.00000000
     atom    6 type  2   force =     0.00000000    0.00000000    0.00000000
     atom    7 type  2   force =     0.00000000    0.00000000    0.00000000
     The Hubbard contrib.    to forces
     atom    1 type  1   force =     0.00000000    0.00000000    0.00000000
     atom    2 type  1   force =     0.00000000    0.00000000    0.00000000
     atom    3 type  1   force =     0.00000000    0.00000000    0.00000000
     atom    4 type  2   force =     0.00000000    0.00000000    0.00000000
     atom    5 type  2   force =     0.00000000    0.00000000    0.00000000
     atom    6 type  2   force =     0.00000000    0.00000000    0.00000000
     atom    7 type  2   force =     0.00000000    0.00000000    0.00000000
     The SCF correction term to forces
     atom    1 type  1   force =    -0.00000267   -0.00000222   -0.00117884
     atom    2 type  1   force =    -0.00000157   -0.00000018    0.00080582
     atom    3 type  1   force =    -0.00000058    0.00000015   -0.00054787
     atom    4 type  2   force =     0.00000061   -0.00000025    0.00025951
     atom    5 type  2   force =     0.00000027   -0.00000012    0.00022931
     atom    6 type  2   force =     0.00000004    0.00000008   -0.00018312
     atom    7 type  2   force =     0.00000039    0.00000021   -0.00026878

     DFT-D3 dispersion contribution to forces:
     atom    1 type  1   force =    -0.00000001   -0.00000001   -0.00454394
     atom    2 type  1   force =     0.00000002    0.00000001   -0.00024463
     atom    3 type  1   force =    -0.00000000   -0.00000000    0.00405283
     atom    4 type  2   force =    -0.00000000    0.00000000   -0.00146207
     atom    5 type  2   force =    -0.00000000   -0.00000000    0.00122550
     atom    6 type  2   force =     0.00000000    0.00000000    0.00217622
     atom    7 type  2   force =    -0.00000000    0.00000000   -0.00120390

     Total force =     0.023073     Total SCF correction =     0.001602


     Computing stress (Cartesian axis) and pressure


     negative rho (up, down):  8.135E-06 0.000E+00
          total   stress  (Ry/bohr**3)                   (kbar)     P=      -14.77
  -0.00009844  -0.00000000  -0.00000000          -14.48       -0.00       -0.00
  -0.00000000  -0.00009846  -0.00000000           -0.00      -14.48       -0.00
  -0.00000000  -0.00000000  -0.00010440           -0.00       -0.00      -15.36

     Energy error            =      5.6E-04 Ry
     Gradient error          =      1.8E-02 Ry/Bohr

     number of scf cycles    =   2
     number of bfgs steps    =   1

     energy             old  =    -312.4059591884 Ry
     energy             new  =    -312.4065207684 Ry

     CASE: energy            _new < energy            _old


     WARNING: bfgs curvature condition failed, Theta= 0.830
     new trust radius        =       0.0197590711 bohr
     new conv_thr            =       0.0000000562 Ry


ATOMIC_POSITIONS (angstrom)
Ag            0.7806794209        0.7806832816       17.8111045490
Ag            0.7806855759        0.7806863325       14.6856561120
Ag            0.7806848419        0.7806847717       11.5637693981
Li            2.3420521824        2.3420555068       16.2647278589
Li            2.3420552195        2.3420551604       13.1233258251
Li            2.3420549478        2.3420555006        9.9996635554
Li            2.3420490153        2.3420546290       19.7740321483



     Writing config-only to output data dir ./LiAg_mp-2426_100_bridge_1/LiAg_mp-2426_100_bridge_1.save/
     NEW-OLD atomic charge density approx. for the potential

     negative rho (up, down):  8.143E-06 0.000E+00

     total cpu time spent up to now is        9.9 secs

     per-process dynamical memory:   203.2 Mb

     Self-consistent Calculation

     iteration #  1     ecut=    55.00 Ry     beta= 0.30
     Davidson diagonalization with overlap
     ethr =  1.00E-06,  avg # of iterations =  4.9

     negative rho (up, down):  8.153E-06 0.000E+00

     total cpu time spent up to now is       10.3 secs

     total energy              =    -312.40709153 Ry
     estimated scf accuracy    <       0.00005029 Ry

     iteration #  2     ecut=    55.00 Ry     beta= 0.30
     Davidson diagonalization with overlap
     ethr =  1.12E-07,  avg # of iterations =  2.8

     negative rho (up, down):  9.793E-06 0.000E+00

     total cpu time spent up to now is       10.4 secs

     total energy              =    -312.40701678 Ry
     estimated scf accuracy    <       0.00357774 Ry

     iteration #  3     ecut=    55.00 Ry     beta= 0.30
     Davidson diagonalization with overlap
     ethr =  1.12E-07,  avg # of iterations =  2.0

     negative rho (up, down):  8.922E-06 0.000E+00

     total cpu time spent up to now is       10.6 secs

     total energy              =    -312.40710903 Ry
     estimated scf accuracy    <       0.00000652 Ry

     iteration #  4     ecut=    55.00 Ry     beta= 0.30
     Davidson diagonalization with overlap
     ethr =  1.45E-08,  avg # of iterations =  2.6

     negative rho (up, down):  8.755E-06 0.000E+00

     total cpu time spent up to now is       10.8 secs

     total energy              =    -312.40710954 Ry
     estimated scf accuracy    <       0.00000145 Ry

     iteration #  5     ecut=    55.00 Ry     beta= 0.30
     Davidson diagonalization with overlap
     ethr =  3.23E-09,  avg # of iterations =  2.1

     negative rho (up, down):  8.974E-06 0.000E+00

     total cpu time spent up to now is       11.0 secs

     total energy              =    -312.40710965 Ry
     estimated scf accuracy    <       0.00000120 Ry

     iteration #  6     ecut=    55.00 Ry     beta= 0.30
     Davidson diagonalization with overlap
     ethr =  2.67E-09,  avg # of iterations =  1.4

     negative rho (up, down):  8.219E-06 0.000E+00

     total cpu time spent up to now is       11.2 secs

     total energy              =    -312.40710979 Ry
     estimated scf accuracy    <       0.00000023 Ry

     iteration #  7     ecut=    55.00 Ry     beta= 0.30
     Davidson diagonalization with overlap
     ethr =  5.02E-10,  avg # of iterations =  2.5

     negative rho (up, down):  8.169E-06 0.000E+00

     total cpu time spent up to now is       11.4 secs

     End of self-consistent calculation

          k = 0.0000 0.0000 0.0000 ( 12493 PWs)   bands (ev):

   -45.9083 -45.5336 -44.6244 -44.6102  -4.8565  -4.5264  -4.3237  -4.2543
    -4.1603  -4.0989  -3.9728  -3.3860  -3.2653  -3.2653  -3.0163  -3.0163
    -2.7926  -2.7926  -2.7816  -2.7549  -2.5459  -2.0979  -0.4576   0.7295
     1.8017   3.2062   4.1284   4.1600

          k = 0.0000 0.1250 0.0000 ( 12528 PWs)   bands (ev):

   -45.9077 -45.5329 -44.6236 -44.6094  -4.6454  -4.3450  -4.1838  -4.1279
    -4.0472  -4.0312  -3.8394  -3.4801  -3.2980  -3.2474  -3.1408  -3.0042
    -2.8924  -2.8689  -2.8328  -2.7817  -2.6240  -1.9579  -0.2247   0.9120
     2.0263   3.4180   4.3630   4.3816

          k = 0.0000 0.2500 0.0000 ( 12550 PWs)   bands (ev):

   -45.9060 -45.5311 -44.6216 -44.6075  -4.3656  -4.1540  -4.0575  -3.9324
    -3.8117  -3.5705  -3.5085  -3.3417  -3.2823  -3.2043  -3.1955  -3.0695
    -3.0237  -2.9631  -2.8052  -2.7972  -2.7577  -1.5592   0.3380   1.4331
     2.5950   3.8259   4.5327   4.7233

          k = 0.0000 0.3750 0.0000 ( 12594 PWs)   bands (ev):

   -45.9044 -45.5294 -44.6197 -44.6056  -4.2431  -4.0848  -4.0450  -3.9747
    -3.8322  -3.7277  -3.4044  -3.2651  -3.2583  -3.1942  -3.1580  -2.9790
    -2.9350  -2.7335  -2.7222  -2.0163  -1.5501  -0.6501   0.9812   1.9482
     2.0335   2.3346   3.7298   3.9133

          k = 0.0000-0.5000 0.0000 ( 12618 PWs)   bands (ev):

   -45.9038 -45.5287 -44.6190 -44.6048  -4.2017  -4.1877  -4.0031  -3.9381
    -3.8253  -3.7907  -3.4767  -3.3327  -3.2636  -3.2231  -3.1398  -3.0477
    -2.9229  -2.7232  -2.5211  -0.3445   0.0084   0.0380   0.5304   0.7521
     1.0290   1.3245   4.2005   4.4317

          k = 0.1250-0.0000 0.0000 ( 12528 PWs)   bands (ev):

   -45.9077 -45.5329 -44.6236 -44.6094  -4.6454  -4.3450  -4.1838  -4.1279
    -4.0472  -4.0312  -3.8394  -3.4801  -3.2980  -3.2474  -3.1408  -3.0042
    -2.8924  -2.8689  -2.8328  -2.7817  -2.6240  -1.9579  -0.2247   0.9120
     2.0263   3.4180   4.3630   4.3816

          k = 0.1250 0.1250 0.0000 ( 12540 PWs)   bands (ev):

   -45.9070 -45.5322 -44.6228 -44.6086  -4.3973  -4.1225  -4.0725  -4.0658
    -3.9721  -3.8738  -3.7849  -3.5060  -3.3898  -3.2588  -3.1253  -3.1133
    -2.9532  -2.9190  -2.8721  -2.8684  -2.7016  -1.8027   0.0193   1.1055
     2.2635   3.6476   4.5981   4.6140

          k = 0.1250 0.2500 0.0000 ( 12575 PWs)   bands (ev):

   -45.9054 -45.5305 -44.6209 -44.6067  -4.1233  -4.0029  -3.9326  -3.8055
    -3.7307  -3.5772  -3.5139  -3.4041  -3.3512  -3.2851  -3.2073  -3.1304
    -3.0770  -3.0576  -2.9215  -2.8544  -2.5528  -1.3472   0.6172   1.6595
     2.8715   4.1206   4.7024   4.9859

          k = 0.1250 0.3750 0.0000 ( 12609 PWs)   bands (ev):

   -45.9038 -45.5288 -44.6190 -44.6048  -4.0799  -4.0142  -3.9254  -3.8342
    -3.7172  -3.6341  -3.4452  -3.3945  -3.3863  -3.3594  -3.2061  -3.1642
    -3.0450  -2.8352  -2.6758  -1.8490  -1.3271  -0.3701   1.3234   2.2242
     2.2800   2.6221   3.9444   4.1246

          k = 0.1250-0.5000 0.0000 ( 12650 PWs)   bands (ev):

   -45.9032 -45.5281 -44.6183 -44.6041  -4.1821  -3.9697  -3.8869  -3.8140
    -3.7859  -3.5871  -3.5242  -3.4686  -3.4519  -3.3592  -3.2418  -3.1692
    -3.0200  -2.8197  -2.4918  -0.2481   0.1982   0.2806   0.8615   0.9949
     1.4382   1.7060   4.3723   4.6208

          k = 0.1250-0.3750 0.0000 ( 12609 PWs)   bands (ev):

   -45.9038 -45.5288 -44.6190 -44.6048  -4.0799  -4.0142  -3.9254  -3.8342
    -3.7172  -3.6341  -3.4452  -3.3945  -3.3863  -3.3594  -3.2061  -3.1642
    -3.0450  -2.8352  -2.6758  -1.8490  -1.3271  -0.3701   1.3234   2.2242
     2.2800   2.6221   3.9444   4.1246

          k = 0.1250-0.2500 0.0000 ( 12575 PWs)   bands (ev):

   -45.9054 -45.5305 -44.6209 -44.6067  -4.1233  -4.0029  -3.9326  -3.8055
    -3.7307  -3.5772  -3.5139  -3.4041  -3.3512  -3.2851  -3.2073  -3.1304
    -3.0770  -3.0576  -2.9215  -2.8544  -2.5528  -1.3472   0.6172   1.6595
     2.8715   4.1206   4.7024   4.9859

          k = 0.1250-0.1250 0.0000 ( 12540 PWs)   bands (ev):

   -45.9070 -45.5322 -44.6228 -44.6086  -4.3973  -4.1225  -4.0725  -4.0658
    -3.9721  -3.8738  -3.7849  -3.5060  -3.3898  -3.2588  -3.1253  -3.1133
    -2.9532  -2.9190  -2.8721  -2.8684  -2.7016  -1.8027   0.0193   1.1055
     2.2635   3.6476   4.5981   4.6140

          k = 0.2500-0.0000 0.0000 ( 12550 PWs)   bands (ev):

   -45.9060 -45.5311 -44.6216 -44.6075  -4.3656  -4.1540  -4.0575  -3.9324
    -3.8117  -3.5705  -3.5085  -3.3417  -3.2823  -3.2043  -3.1955  -3.0695
    -3.0237  -2.9631  -2.8052  -2.7972  -2.7577  -1.5592   0.3380   1.4331
     2.5950   3.8259   4.5328   4.7234

          k = 0.2500 0.1250 0.0000 ( 12575 PWs)   bands (ev):

   -45.9054 -45.5305 -44.6209 -44.6067  -4.1233  -4.0029  -3.9326  -3.8055
    -3.7307  -3.5772  -3.5139  -3.4041  -3.3512  -3.2851  -3.2073  -3.1304
    -3.0770  -3.0576  -2.9215  -2.8544  -2.5528  -1.3472   0.6172   1.6595
     2.8715   4.1206   4.7024   4.9859

          k = 0.2500 0.2500 0.0000 ( 12610 PWs)   bands (ev):

   -45.9038 -45.5288 -44.6190 -44.6049  -3.9501  -3.8226  -3.7322  -3.6754
    -3.6316  -3.5643  -3.4660  -3.4506  -3.4020  -3.2883  -3.2832  -3.2272
    -3.1493  -3.0517  -2.9732  -2.6245  -1.9570  -0.7400   1.3138   2.3035
     3.6119   4.4521   4.9151   5.2766

          k = 0.2500 0.3750 0.0000 ( 12622 PWs)   bands (ev):

   -45.9022 -45.5271 -44.6171 -44.6030  -4.0646  -3.8628  -3.8315  -3.7978
    -3.7418  -3.6685  -3.5580  -3.4619  -3.3489  -3.3043  -3.2459  -3.1270
    -3.0696  -2.9492  -2.6216  -1.3958  -0.7210   0.3684   2.1874   2.6300
     3.1502   3.3023   4.5276   4.7199

          k = 0.2500-0.5000 0.0000 ( 12660 PWs)   bands (ev):

   -45.9016 -45.5265 -44.6164 -44.6023  -4.1692  -3.9028  -3.8739  -3.8144
    -3.7734  -3.7338  -3.6322  -3.4522  -3.4041  -3.2954  -3.2212  -3.0967
    -3.0430  -2.8635  -2.4424   0.0832   0.6963   0.8713   1.6121   1.6917
     2.4238   2.7153   4.8686   5.1805

          k = 0.2500-0.3750 0.0000 ( 12622 PWs)   bands (ev):

   -45.9022 -45.5271 -44.6171 -44.6030  -4.0646  -3.8628  -3.8315  -3.7978
    -3.7418  -3.6685  -3.5580  -3.4619  -3.3489  -3.3043  -3.2459  -3.1270
    -3.0696  -2.9492  -2.6216  -1.3958  -0.7210   0.3684   2.1874   2.6300
     3.1502   3.3023   4.5276   4.7199

          k = 0.2500-0.2500 0.0000 ( 12610 PWs)   bands (ev):

   -45.9038 -45.5288 -44.6190 -44.6049  -3.9501  -3.8226  -3.7322  -3.6754
    -3.6316  -3.5643  -3.4660  -3.4506  -3.4020  -3.2883  -3.2832  -3.2272
    -3.1493  -3.0517  -2.9732  -2.6245  -1.9570  -0.7400   1.3138   2.3035
     3.6119   4.4521   4.9151   5.2766

          k = 0.2500-0.1250 0.0000 ( 12575 PWs)   bands (ev):

   -45.9054 -45.5305 -44.6209 -44.6067  -4.1233  -4.0029  -3.9326  -3.8055
    -3.7307  -3.5772  -3.5140  -3.4041  -3.3512  -3.2851  -3.2073  -3.1304
    -3.0770  -3.0576  -2.9215  -2.8544  -2.5528  -1.3472   0.6172   1.6595
     2.8715   4.1206   4.7024   4.9859

          k = 0.3750-0.0000 0.0000 ( 12594 PWs)   bands (ev):

   -45.9044 -45.5294 -44.6197 -44.6056  -4.2431  -4.0848  -4.0450  -3.9747
    -3.8322  -3.7277  -3.4044  -3.2651  -3.2583  -3.1942  -3.1580  -2.9790
    -2.9350  -2.7335  -2.7222  -2.0163  -1.5501  -0.6501   0.9812   1.9482
     2.0335   2.3346   3.7298   3.9133

          k = 0.3750 0.1250 0.0000 ( 12609 PWs)   bands (ev):

   -45.9038 -45.5288 -44.6190 -44.6048  -4.0799  -4.0142  -3.9254  -3.8342
    -3.7172  -3.6341  -3.4452  -3.3945  -3.3863  -3.3594  -3.2061  -3.1642
    -3.0450  -2.8352  -2.6758  -1.8490  -1.3271  -0.3701   1.3234   2.2242
     2.2800   2.6221   3.9444   4.1246

          k = 0.3750 0.2500 0.0000 ( 12622 PWs)   bands (ev):

   -45.9022 -45.5271 -44.6171 -44.6030  -4.0647  -3.8628  -3.8315  -3.7978
    -3.7418  -3.6685  -3.5580  -3.4619  -3.3489  -3.3043  -3.2459  -3.1270
    -3.0696  -2.9492  -2.6216  -1.3958  -0.7210   0.3684   2.1874   2.6300
     3.1502   3.3023   4.5276   4.7199

          k = 0.3750 0.3750 0.0000 ( 12670 PWs)   bands (ev):

   -45.9008 -45.5255 -44.6154 -44.6013  -4.1089  -4.0870  -4.0595  -4.0250
    -3.8380  -3.7769  -3.6411  -3.6328  -3.3067  -3.2641  -3.0934  -2.7484
    -2.6720  -2.5845  -2.4970  -0.4445   0.3659   1.5323   2.5025   3.3208
     3.4519   4.4145   4.7182   5.5880

          k = 0.3750-0.5000 0.0000 ( 12656 PWs)   bands (ev):

   -45.9001 -45.5248 -44.6146 -44.6004  -4.2120  -4.1957  -4.1544  -4.0375
    -3.9439  -3.7500  -3.7226  -3.6173  -3.3567  -3.2657  -3.0631  -2.5927
    -2.5598  -2.4412  -2.3016   0.8212   1.4143   1.6535   2.3559   2.8324
     3.5178   4.1402   5.4696   5.6024

          k = 0.3750-0.3750 0.0000 ( 12670 PWs)   bands (ev):

   -45.9008 -45.5255 -44.6154 -44.6013  -4.1089  -4.0870  -4.0595  -4.0250
    -3.8380  -3.7769  -3.6411  -3.6328  -3.3067  -3.2641  -3.0934  -2.7484
    -2.6720  -2.5845  -2.4970  -0.4445   0.3659   1.5323   2.5025   3.3208
     3.4519   4.4145   4.7182   5.5882

          k = 0.3750-0.2500 0.0000 ( 12622 PWs)   bands (ev):

   -45.9022 -45.5271 -44.6171 -44.6030  -4.0647  -3.8628  -3.8315  -3.7978
    -3.7418  -3.6685  -3.5580  -3.4619  -3.3489  -3.3043  -3.2459  -3.1270
    -3.0696  -2.9492  -2.6216  -1.3958  -0.7210   0.3684   2.1874   2.6300
     3.1502   3.3023   4.5276   4.7199

          k = 0.3750-0.1250 0.0000 ( 12609 PWs)   bands (ev):

   -45.9038 -45.5288 -44.6190 -44.6048  -4.0799  -4.0142  -3.9254  -3.8342
    -3.7172  -3.6341  -3.4452  -3.3945  -3.3863  -3.3594  -3.2061  -3.1642
    -3.0450  -2.8352  -2.6758  -1.8490  -1.3271  -0.3701   1.3234   2.2242
     2.2800   2.6221   3.9444   4.1246

          k =-0.5000 0.0000 0.0000 ( 12618 PWs)   bands (ev):

   -45.9038 -45.5287 -44.6190 -44.6048  -4.2017  -4.1877  -4.0031  -3.9381
    -3.8253  -3.7907  -3.4767  -3.3327  -3.2636  -3.2231  -3.1398  -3.0477
    -2.9229  -2.7232  -2.5211  -0.3445   0.0084   0.0380   0.5304   0.7521
     1.0290   1.3245   4.2005   4.4317

          k =-0.5000 0.1250 0.0000 ( 12650 PWs)   bands (ev):

   -45.9032 -45.5281 -44.6183 -44.6041  -4.1821  -3.9697  -3.8869  -3.8140
    -3.7859  -3.5871  -3.5242  -3.4686  -3.4519  -3.3592  -3.2418  -3.1692
    -3.0200  -2.8197  -2.4918  -0.2481   0.1982   0.2806   0.8615   0.9949
     1.4382   1.7060   4.3723   4.6210

          k =-0.5000 0.2500 0.0000 ( 12660 PWs)   bands (ev):

   -45.9016 -45.5265 -44.6164 -44.6023  -4.1692  -3.9028  -3.8739  -3.8144
    -3.7734  -3.7338  -3.6322  -3.4522  -3.4041  -3.2954  -3.2212  -3.0967
    -3.0430  -2.8635  -2.4424   0.0832   0.6963   0.8713   1.6121   1.6917
     2.4238   2.7153   4.8686   5.1805

          k =-0.5000 0.3750 0.0000 ( 12656 PWs)   bands (ev):

   -45.9001 -45.5248 -44.6146 -44.6004  -4.2120  -4.1957  -4.1544  -4.0375
    -3.9439  -3.7500  -3.7226  -3.6173  -3.3567  -3.2657  -3.0631  -2.5927
    -2.5598  -2.4413  -2.3016   0.8212   1.4143   1.6535   2.3559   2.8324
     3.5178   4.1402   5.4695   5.6025

          k =-0.5000-0.5000 0.0000 ( 12564 PWs)   bands (ev):

   -45.8991 -45.5238 -44.6136 -44.5994  -4.3258  -4.3155  -4.1496  -4.1496
    -4.0593  -3.7381  -3.7381  -3.6497  -3.3364  -3.3364  -3.0244  -2.4602
    -2.2896  -2.2720  -2.0833   1.6332   1.6332   2.6770   2.6770   3.9154
     4.0382   4.0382   4.4688   5.4504

     the Fermi energy is     1.1602 ev

!    total energy              =    -312.40710983 Ry
     estimated scf accuracy    <       0.00000002 Ry
     smearing contrib. (-TS)   =       0.00078055 Ry
     internal energy E=F+TS    =    -312.40789037 Ry

     The total energy is F=E-TS. E is the sum of the following terms:
     one-electron contribution =   -2694.58073573 Ry
     hartree contribution      =    1365.70209578 Ry
     xc contribution           =     -81.42677302 Ry
     ewald contribution        =    1098.00750107 Ry
     DFT-D3 Dispersion         =      -0.10997847 Ry

     convergence has been achieved in   7 iterations

     negative rho (up, down):  8.169E-06 0.000E+00

     Forces acting on atoms (cartesian axes, Ry/au):

     atom    1 type  1   force =    -0.00000004    0.00000077    0.01371789
     atom    2 type  1   force =    -0.00000048   -0.00000068    0.00133139
     atom    3 type  1   force =    -0.00000003    0.00000015    0.00191598
     atom    4 type  2   force =     0.00000025   -0.00000001   -0.00032369
     atom    5 type  2   force =     0.00000022    0.00000018    0.00066155
     atom    6 type  2   force =     0.00000005   -0.00000009   -0.00015206
     atom    7 type  2   force =     0.00000003   -0.00000031   -0.01715106
     The non-local contrib.  to forces
     atom    1 type  1   force =    -0.00000092    0.00000045   -0.01142505
     atom    2 type  1   force =    -0.00000065   -0.00000079   -0.00164328
     atom    3 type  1   force =    -0.00000036    0.00000028    0.02583241
     atom    4 type  2   force =    -0.00000436   -0.00000445   -0.00052400
     atom    5 type  2   force =    -0.00000438   -0.00000436    0.00018946
     atom    6 type  2   force =    -0.00000816   -0.00000818   -0.05732268
     atom    7 type  2   force =    -0.00001406   -0.00001400    0.04195310
     The ionic contribution  to forces
     atom    1 type  1   force =     0.00000078    0.00000236   70.91527618
     atom    2 type  1   force =    -0.00000257   -0.00000125    0.32885239
     atom    3 type  1   force =    -0.00000008    0.00000043  -71.00349406
     atom    4 type  2   force =     0.00000099   -0.00000143    9.81670206
     atom    5 type  2   force =     0.00000046    0.00000138   -9.58333949
     atom    6 type  2   force =     0.00000007   -0.00000070  -27.48991433
     atom    7 type  2   force =     0.00000035   -0.00000079   27.01591725
     The local contribution  to forces
     atom    1 type  1   force =     0.00000009   -0.00000206  -70.88306222
     atom    2 type  1   force =     0.00000211    0.00000112   -0.32552818
     atom    3 type  1   force =     0.00000042   -0.00000016   70.97566520
     atom    4 type  2   force =     0.00000370    0.00000597   -9.81510900
     atom    5 type  2   force =     0.00000409    0.00000331    9.58259021
     atom    6 type  2   force =     0.00000809    0.00000877   27.54494487
     atom    7 type  2   force =     0.00001396    0.00001463  -27.07367462
     The core correction contribution to forces
     atom    1 type  1   force =     0.00000001   -0.00000003   -0.00285969
     atom    2 type  1   force =     0.00000002    0.00000002   -0.00023702
     atom    3 type  1   force =     0.00000002    0.00000001   -0.00007258
     atom    4 type  2   force =     0.00000000    0.00000000    0.00000000
     atom    5 type  2   force =     0.00000000    0.00000000    0.00000000
     atom    6 type  2   force =     0.00000000    0.00000000    0.00000000
     atom    7 type  2   force =     0.00000000    0.00000000    0.00000000
     The Hubbard contrib.    to forces
     atom    1 type  1   force =     0.00000000    0.00000000    0.00000000
     atom    2 type  1   force =     0.00000000    0.00000000    0.00000000
     atom    3 type  1   force =     0.00000000    0.00000000    0.00000000
     atom    4 type  2   force =     0.00000000    0.00000000    0.00000000
     atom    5 type  2   force =     0.00000000    0.00000000    0.00000000
     atom    6 type  2   force =     0.00000000    0.00000000    0.00000000
     atom    7 type  2   force =     0.00000000    0.00000000    0.00000000
     The SCF correction term to forces
     atom    1 type  1   force =    -0.00000010    0.00000014    0.00027225
     atom    2 type  1   force =     0.00000048    0.00000029    0.00017479
     atom    3 type  1   force =    -0.00000013   -0.00000033   -0.00005171
     atom    4 type  2   force =    -0.00000018   -0.00000003    0.00009131
     atom    5 type  2   force =    -0.00000005   -0.00000007    0.00001571
     atom    6 type  2   force =    -0.00000005    0.00000010   -0.00001778
     atom    7 type  2   force =    -0.00000032   -0.00000007   -0.00008735

     DFT-D3 dispersion contribution to forces:
     atom    1 type  1   force =    -0.00000001   -0.00000001   -0.00446726
     atom    2 type  1   force =     0.00000001    0.00000001   -0.00027101
     atom    3 type  1   force =    -0.00000000   -0.00000000    0.00405303
     atom    4 type  2   force =    -0.00000000    0.00000000   -0.00146776
     atom    5 type  2   force =     0.00000000   -0.00000000    0.00122197
     atom    6 type  2   force =    -0.00000000    0.00000000    0.00217417
     atom    7 type  2   force =    -0.00000000    0.00000000   -0.00124313

     Total force =     0.022099     Total SCF correction =     0.000352


     Computing stress (Cartesian axis) and pressure


     negative rho (up, down):  8.169E-06 0.000E+00
          total   stress  (Ry/bohr**3)                   (kbar)     P=      -14.71
  -0.00009825  -0.00000000   0.00000000          -14.45       -0.00        0.00
  -0.00000000  -0.00009825   0.00000000           -0.00      -14.45        0.00
   0.00000000   0.00000000  -0.00010348            0.00        0.00      -15.22

     Energy error            =      5.9E-04 Ry
     Gradient error          =      1.7E-02 Ry/Bohr

     number of scf cycles    =   3
     number of bfgs steps    =   2

     energy             old  =    -312.4065207684 Ry
     energy             new  =    -312.4071098253 Ry

     CASE: energy            _new < energy            _old

     new trust radius        =       0.0296386066 bohr
     new conv_thr            =       0.0000000589 Ry


ATOMIC_POSITIONS (angstrom)
Ag            0.7806786669        0.7806830199       17.8239306392
Ag            0.7806872033        0.7806867457       14.6868400228
Ag            0.7806839541        0.7806850200       11.5657263202
Li            2.3420521905        2.3420551720       16.2641261536
Li            2.3420555409        2.3420554130       13.1238419565
Li            2.3420550226        2.3420554372        9.9994662812
Li            2.3420486254        2.3420543746       19.7583480731



     Writing config-only to output data dir ./LiAg_mp-2426_100_bridge_1/LiAg_mp-2426_100_bridge_1.save/
     NEW-OLD atomic charge density approx. for the potential

     negative rho (up, down):  8.246E-06 0.000E+00

     total cpu time spent up to now is       12.1 secs

     per-process dynamical memory:   203.2 Mb

     Self-consistent Calculation

     iteration #  1     ecut=    55.00 Ry     beta= 0.30
     Davidson diagonalization with overlap
     ethr =  1.00E-06,  avg # of iterations =  5.9

     negative rho (up, down):  8.227E-06 0.000E+00

     total cpu time spent up to now is       12.5 secs

     total energy              =    -312.40788057 Ry
     estimated scf accuracy    <       0.00014131 Ry

     iteration #  2     ecut=    55.00 Ry     beta= 0.30
     Davidson diagonalization with overlap
     ethr =  3.14E-07,  avg # of iterations =  3.7

     negative rho (up, down):  1.135E-05 0.000E+00

     total cpu time spent up to now is       12.7 secs

     total energy              =    -312.40765798 Ry
     estimated scf accuracy    <       0.01048326 Ry

     iteration #  3     ecut=    55.00 Ry     beta= 0.30
     Davidson diagonalization with overlap
     ethr =  3.14E-07,  avg # of iterations =  2.3

     negative rho (up, down):  1.236E-05 0.000E+00

     total cpu time spent up to now is       12.9 secs

     total energy              =    -312.40792439 Ry
     estimated scf accuracy    <       0.00004967 Ry

     iteration #  4     ecut=    55.00 Ry     beta= 0.30
     Davidson diagonalization with overlap
     ethr =  1.10E-07,  avg # of iterations =  1.9

     negative rho (up, down):  1.071E-05 0.000E+00

     total cpu time spent up to now is       13.1 secs

     total energy              =    -312.40792774 Ry
     estimated scf accuracy    <       0.00007174 Ry

     iteration #  5     ecut=    55.00 Ry     beta= 0.30
     Davidson diagonalization with overlap
     ethr =  1.10E-07,  avg # of iterations =  1.1

     negative rho (up, down):  9.018E-06 0.000E+00

     total cpu time spent up to now is       13.2 secs

     total energy              =    -312.40793215 Ry
     estimated scf accuracy    <       0.00000057 Ry

     iteration #  6     ecut=    55.00 Ry     beta= 0.30
     Davidson diagonalization with overlap
     ethr =  1.27E-09,  avg # of iterations =  4.4

     negative rho (up, down):  8.253E-06 0.000E+00

     total cpu time spent up to now is       13.5 secs

     total energy              =    -312.40793233 Ry
     estimated scf accuracy    <       0.00000018 Ry

     iteration #  7     ecut=    55.00 Ry     beta= 0.30
     Davidson diagonalization with overlap
     ethr =  4.05E-10,  avg # of iterations =  1.9

     negative rho (up, down):  8.263E-06 0.000E+00

     total cpu time spent up to now is       13.6 secs

     End of self-consistent calculation

          k = 0.0000 0.0000 0.0000 ( 12493 PWs)   bands (ev):

   -45.8801 -45.5338 -44.6224 -44.6128  -4.8536  -4.5247  -4.3270  -4.2524
    -4.1583  -4.0953  -3.9738  -3.3844  -3.2626  -3.2626  -3.0137  -3.0137
    -2.7964  -2.7964  -2.7798  -2.7531  -2.5465  -2.1002  -0.4520   0.7378
     1.8150   3.2080   4.1276   4.1599

          k = 0.0000 0.1250 0.0000 ( 12528 PWs)   bands (ev):

   -45.8795 -45.5331 -44.6217 -44.6120  -4.6423  -4.3432  -4.1835  -4.1267
    -4.0459  -4.0290  -3.8408  -3.4774  -3.2967  -3.2447  -3.1388  -3.0016
    -2.8959  -2.8670  -2.8309  -2.7854  -2.6246  -1.9613  -0.2188   0.9202
     2.0393   3.4204   4.3626   4.3812

          k = 0.0000 0.2500 0.0000 ( 12550 PWs)   bands (ev):

   -45.8778 -45.5313 -44.6197 -44.6101  -4.3626  -4.1519  -4.0535  -3.9338
    -3.8084  -3.5673  -3.5060  -3.3400  -3.2842  -3.2017  -3.2001  -3.0676
    -3.0217  -2.9606  -2.8060  -2.7987  -2.7613  -1.5643   0.3440   1.4409
     2.6070   3.8301   4.5340   4.7224

          k = 0.0000 0.3750 0.0000 ( 12594 PWs)   bands (ev):

   -45.8762 -45.5296 -44.6178 -44.6082  -4.2403  -4.0816  -4.0427  -3.9697
    -3.8335  -3.7256  -3.4080  -3.2638  -3.2564  -3.1922  -3.1554  -2.9796
    -2.9326  -2.7370  -2.7251  -2.0150  -1.5513  -0.6553   0.9858   1.9518
     2.0354   2.3360   3.7378   3.9145

          k = 0.0000-0.5000 0.0000 ( 12618 PWs)   bands (ev):

   -45.8756 -45.5289 -44.6170 -44.6074  -4.1990  -4.1843  -4.0008  -3.9331
    -3.8234  -3.7920  -3.4809  -3.3309  -3.2617  -3.2215  -3.1372  -3.0484
    -2.9203  -2.7267  -2.5252  -0.3424   0.0096   0.0392   0.5282   0.7484
     1.0243   1.3266   4.2163   4.4326

          k = 0.1250-0.0000 0.0000 ( 12528 PWs)   bands (ev):

   -45.8795 -45.5331 -44.6217 -44.6120  -4.6423  -4.3432  -4.1835  -4.1267
    -4.0459  -4.0290  -3.8408  -3.4774  -3.2967  -3.2447  -3.1388  -3.0016
    -2.8959  -2.8670  -2.8309  -2.7854  -2.6246  -1.9613  -0.2188   0.9202
     2.0393   3.4204   4.3626   4.3812

          k = 0.1250 0.1250 0.0000 ( 12540 PWs)   bands (ev):

   -45.8788 -45.5324 -44.6209 -44.6112  -4.3937  -4.1204  -4.0706  -4.0623
    -3.9700  -3.8773  -3.7858  -3.5030  -3.3872  -3.2575  -3.1245  -3.1109
    -2.9514  -2.9175  -2.8761  -2.8710  -2.7021  -1.8069   0.0255   1.1137
     2.2762   3.6507   4.5984   4.6131

          k = 0.1250 0.2500 0.0000 ( 12575 PWs)   bands (ev):

   -45.8772 -45.5306 -44.6189 -44.6093  -4.1194  -3.9992  -3.9302  -3.8023
    -3.7322  -3.5740  -3.5114  -3.4020  -3.3494  -3.2863  -3.2108  -3.1296
    -3.0754  -3.0564  -2.9234  -2.8575  -2.5535  -1.3527   0.6239   1.6676
     2.8832   4.1252   4.7033   4.9853

          k = 0.1250 0.3750 0.0000 ( 12609 PWs)   bands (ev):

   -45.8756 -45.5289 -44.6170 -44.6075  -4.0767  -4.0103  -3.9214  -3.8318
    -3.7150  -3.6352  -3.4436  -3.3957  -3.3843  -3.3591  -3.2046  -3.1655
    -3.0438  -2.8386  -2.6787  -1.8476  -1.3280  -0.3755   1.3290   2.2261
     2.2842   2.6231   3.9518   4.1259

          k = 0.1250-0.5000 0.0000 ( 12650 PWs)   bands (ev):

   -45.8750 -45.5283 -44.6163 -44.6067  -4.1787  -3.9659  -3.8827  -3.8121
    -3.7835  -3.5880  -3.5225  -3.4690  -3.4538  -3.3564  -3.2432  -3.1674
    -3.0192  -2.8230  -2.4957  -0.2462   0.1989   0.2820   0.8595   0.9911
     1.4335   1.7093   4.3893   4.6216

          k = 0.1250-0.3750 0.0000 ( 12609 PWs)   bands (ev):

   -45.8756 -45.5289 -44.6170 -44.6075  -4.0767  -4.0103  -3.9214  -3.8318
    -3.7150  -3.6352  -3.4436  -3.3957  -3.3843  -3.3591  -3.2046  -3.1655
    -3.0438  -2.8386  -2.6787  -1.8476  -1.3280  -0.3755   1.3290   2.2261
     2.2842   2.6231   3.9518   4.1259

          k = 0.1250-0.2500 0.0000 ( 12575 PWs)   bands (ev):

   -45.8772 -45.5306 -44.6189 -44.6093  -4.1194  -3.9992  -3.9302  -3.8023
    -3.7322  -3.5740  -3.5114  -3.4020  -3.3494  -3.2863  -3.2108  -3.1296
    -3.0754  -3.0564  -2.9234  -2.8575  -2.5535  -1.3527   0.6239   1.6676
     2.8832   4.1252   4.7033   4.9853

          k = 0.1250-0.1250 0.0000 ( 12540 PWs)   bands (ev):

   -45.8788 -45.5324 -44.6209 -44.6112  -4.3937  -4.1204  -4.0706  -4.0623
    -3.9700  -3.8773  -3.7858  -3.5030  -3.3872  -3.2575  -3.1245  -3.1109
    -2.9514  -2.9175  -2.8761  -2.8710  -2.7021  -1.8069   0.0255   1.1137
     2.2762   3.6507   4.5984   4.6131

[...]
     2.3206   3.6546   4.4141   4.4219

          k = 0.0000 0.2500 0.0000 ( 12550 PWs)   bands (ev):

   -45.5030 -45.4938 -44.5542 -44.5498  -4.4191  -4.1894  -4.1202  -4.0890
    -3.8679  -3.6315  -3.5495  -3.4006  -3.3405  -3.2883  -3.2552  -3.0959
    -3.0303  -3.0184  -2.9901  -2.8419  -2.8290  -1.5120   0.4568   1.6507
     2.8555   4.0210   4.4973   4.7149

          k = 0.0000 0.3750 0.0000 ( 12594 PWs)   bands (ev):

   -45.5014 -45.4921 -44.5522 -44.5479  -4.2989  -4.1413  -4.0834  -4.0475
    -3.9801  -3.7958  -3.4415  -3.3342  -3.2821  -3.2168  -3.1939  -3.1659
    -2.9946  -2.8066  -2.7493  -2.0644  -1.6302  -0.6424   1.0804   1.9904
     2.0728   2.3103   3.9166   3.9923

          k = 0.0000-0.5000 0.0000 ( 12618 PWs)   bands (ev):

   -45.5007 -45.4914 -44.5514 -44.5471  -4.2592  -4.2456  -4.0436  -4.0116
    -3.9362  -3.8947  -3.5087  -3.3580  -3.2957  -3.2751  -3.2351  -3.1883
    -2.9807  -2.7970  -2.5357  -0.3888  -0.0483  -0.0327   0.4762   0.7247
     1.0272   1.4001   4.4626   4.4695

          k = 0.1250-0.0000 0.0000 ( 12528 PWs)   bands (ev):

   -45.5048 -45.4955 -44.5562 -44.5517  -4.6980  -4.3878  -4.2757  -4.1875
    -4.1413  -4.0544  -3.9883  -3.5368  -3.3304  -3.3002  -3.2209  -3.0685
    -2.9400  -2.8842  -2.8581  -2.8264  -2.8088  -1.8922  -0.0985   1.1453
     2.3206   3.6546   4.4141   4.4219

          k = 0.1250 0.1250 0.0000 ( 12540 PWs)   bands (ev):

   -45.5041 -45.4948 -44.5554 -44.5509  -4.4554  -4.1536  -4.1263  -4.0972
    -4.0497  -3.9951  -3.9274  -3.5623  -3.4476  -3.2717  -3.2273  -3.1829
    -2.9734  -2.9378  -2.9222  -2.8995  -2.8837  -1.7454   0.1450   1.3357
     2.5509   3.8791   4.6417   4.6595

          k = 0.1250 0.2500 0.0000 ( 12575 PWs)   bands (ev):

   -45.5024 -45.4931 -44.5534 -44.5491  -4.1896  -4.0521  -3.9689  -3.8811
    -3.8618  -3.6350  -3.5531  -3.4386  -3.4295  -3.3701  -3.2886  -3.1685
    -3.1384  -3.0840  -3.0387  -2.9321  -2.6209  -1.3084   0.7423   1.8792
     3.1305   4.3099   4.6619   4.9777

          k = 0.1250 0.3750 0.0000 ( 12609 PWs)   bands (ev):

   -45.5007 -45.4914 -44.5514 -44.5472  -4.1368  -4.0887  -3.9784  -3.8738
    -3.7869  -3.7763  -3.4616  -3.4523  -3.4278  -3.3755  -3.3585  -3.2516
    -3.1366  -2.8892  -2.7024  -1.9042  -1.4119  -0.3664   1.4350   2.1822
     2.4090   2.5900   4.1214   4.2142

          k = 0.1250-0.5000 0.0000 ( 12650 PWs)   bands (ev):

   -45.5001 -45.4908 -44.5508 -44.5464  -4.2420  -4.0452  -3.9402  -3.8862
    -3.8282  -3.7242  -3.5443  -3.5067  -3.4584  -3.4384  -3.4216  -3.2143
    -3.1218  -2.8728  -2.5068  -0.2982   0.1068   0.2316   0.8011   0.9724
     1.4366   1.7967   4.6505   4.6586

          k = 0.1250-0.3750 0.0000 ( 12609 PWs)   bands (ev):

   -45.5007 -45.4914 -44.5514 -44.5472  -4.1368  -4.0887  -3.9784  -3.8738
    -3.7869  -3.7763  -3.4616  -3.4523  -3.4278  -3.3755  -3.3585  -3.2516
    -3.1366  -2.8892  -2.7024  -1.9042  -1.4119  -0.3664   1.4350   2.1822
     2.4090   2.5900   4.1214   4.2142

          k = 0.1250-0.2500 0.0000 ( 12575 PWs)   bands (ev):

   -45.5024 -45.4931 -44.5534 -44.5491  -4.1896  -4.0521  -3.9689  -3.8811
    -3.8618  -3.6350  -3.5531  -3.4386  -3.4295  -3.3701  -3.2886  -3.1685
    -3.1384  -3.0840  -3.0387  -2.9321  -2.6209  -1.3084   0.7423   1.8792
     3.1305   4.3099   4.6619   4.9777

          k = 0.1250-0.1250 0.0000 ( 12540 PWs)   bands (ev):

   -45.5041 -45.4948 -44.5554 -44.5509  -4.4554  -4.1536  -4.1263  -4.0972
    -4.0497  -3.9951  -3.9274  -3.5623  -3.4476  -3.2717  -3.2273  -3.1829
    -2.9734  -2.9378  -2.9222  -2.8995  -2.8837  -1.7454   0.1450   1.3357
     2.5509   3.8791   4.6417   4.6595

          k = 0.2500-0.0000 0.0000 ( 12550 PWs)   bands (ev):

   -45.5030 -45.4938 -44.5542 -44.5498  -4.4191  -4.1894  -4.1202  -4.0890
    -3.8679  -3.6315  -3.5495  -3.4006  -3.3405  -3.2883  -3.2552  -3.0959
    -3.0303  -3.0184  -2.9901  -2.8419  -2.8290  -1.5120   0.4568   1.6507
     2.8555   4.0210   4.4973   4.7149

          k = 0.2500 0.1250 0.0000 ( 12575 PWs)   bands (ev):

   -45.5024 -45.4931 -44.5534 -44.5491  -4.1896  -4.0521  -3.9689  -3.8811
    -3.8618  -3.6350  -3.5531  -3.4386  -3.4295  -3.3701  -3.2886  -3.1685
    -3.1384  -3.0840  -3.0387  -2.9321  -2.6209  -1.3084   0.7423   1.8792
     3.1305   4.3099   4.6619   4.9777

          k = 0.2500 0.2500 0.0000 ( 12610 PWs)   bands (ev):

   -45.5007 -45.4914 -44.5515 -44.5473  -4.0341  -3.8804  -3.7941  -3.7136
    -3.6335  -3.6201  -3.5975  -3.4882  -3.4521  -3.4351  -3.3639  -3.3187
    -3.1903  -3.1027  -3.0180  -2.7086  -2.0424  -0.7200   1.4534   2.5261
     3.8618   4.3692   5.1264   5.1763

          k = 0.2500 0.3750 0.0000 ( 12622 PWs)   bands (ev):

   -45.4990 -45.4897 -44.5495 -44.5454  -4.1263  -3.9515  -3.8559  -3.8205
    -3.7842  -3.7699  -3.7361  -3.5293  -3.4031  -3.3178  -3.2919  -3.2287
    -3.1825  -3.0006  -2.6475  -1.4678  -0.8181   0.3639   2.3301   2.5592
     3.2292   3.3180   4.6582   4.8619

          k = 0.2500-0.5000 0.0000 ( 12660 PWs)   bands (ev):

   -45.4984 -45.4891 -44.5488 -44.5447  -4.2337  -3.9280  -3.9015  -3.8736
    -3.8579  -3.8322  -3.8011  -3.5227  -3.4499  -3.3298  -3.2503  -3.1998
    -3.1546  -2.9227  -2.4611   0.0174   0.5932   0.8003   1.5311   1.6768
     2.4199   2.8401   5.1985   5.2245

          k = 0.2500-0.3750 0.0000 ( 12622 PWs)   bands (ev):

   -45.4990 -45.4897 -44.5495 -44.5454  -4.1263  -3.9515  -3.8559  -3.8205
    -3.7842  -3.7699  -3.7361  -3.5293  -3.4031  -3.3178  -3.2919  -3.2287
    -3.1825  -3.0006  -2.6475  -1.4678  -0.8181   0.3639   2.3301   2.5592
     3.2292   3.3180   4.6582   4.8619

          k = 0.2500-0.2500 0.0000 ( 12610 PWs)   bands (ev):

   -45.5007 -45.4914 -44.5515 -44.5473  -4.0341  -3.8804  -3.7941  -3.7136
    -3.6335  -3.6201  -3.5975  -3.4882  -3.4521  -3.4351  -3.3639  -3.3187
    -3.1903  -3.1027  -3.0180  -2.7086  -2.0424  -0.7200   1.4534   2.5261
     3.8618   4.3692   5.1264   5.1763

          k = 0.2500-0.1250 0.0000 ( 12575 PWs)   bands (ev):

   -45.5024 -45.4931 -44.5534 -44.5491  -4.1896  -4.0521  -3.9689  -3.8811
    -3.8618  -3.6350  -3.5531  -3.4386  -3.4295  -3.3701  -3.2886  -3.1685
    -3.1384  -3.0840  -3.0387  -2.9321  -2.6209  -1.3084   0.7423   1.8792
     3.1305   4.3099   4.6619   4.9777

          k = 0.3750-0.0000 0.0000 ( 12594 PWs)   bands (ev):

   -45.5014 -45.4921 -44.5522 -44.5479  -4.2989  -4.1413  -4.0834  -4.0475
    -3.9801  -3.7958  -3.4415  -3.3342  -3.2821  -3.2168  -3.1939  -3.1659
    -2.9946  -2.8066  -2.7493  -2.0644  -1.6302  -0.6424   1.0804   1.9904
     2.0728   2.3103   3.9166   3.9923

          k = 0.3750 0.1250 0.0000 ( 12609 PWs)   bands (ev):

   -45.5007 -45.4914 -44.5514 -44.5472  -4.1368  -4.0887  -3.9784  -3.8738
    -3.7869  -3.7763  -3.4616  -3.4523  -3.4278  -3.3755  -3.3585  -3.2516
    -3.1366  -2.8892  -2.7024  -1.9042  -1.4119  -0.3664   1.4350   2.1822
     2.4090   2.5900   4.1214   4.2142

          k = 0.3750 0.2500 0.0000 ( 12622 PWs)   bands (ev):

   -45.4990 -45.4897 -44.5495 -44.5454  -4.1263  -3.9515  -3.8559  -3.8205
    -3.7842  -3.7699  -3.7361  -3.5293  -3.4031  -3.3178  -3.2919  -3.2287
    -3.1825  -3.0006  -2.6475  -1.4678  -0.8181   0.3639   2.3301   2.5592
     3.2292   3.3180   4.6582   4.8619

          k = 0.3750 0.3750 0.0000 ( 12670 PWs)   bands (ev):

   -45.4975 -45.4882 -44.5478 -44.5436  -4.1331  -4.1237  -4.0942  -4.0771
    -4.0589  -3.8701  -3.7277  -3.7100  -3.3665  -3.3252  -3.1604  -2.7694
    -2.6761  -2.6465  -2.5993  -0.5318   0.2556   1.5189   2.4034   3.3267
     3.4920   4.6370   4.7395   5.7213

          k = 0.3750-0.5000 0.0000 ( 12656 PWs)   bands (ev):

   -45.4967 -45.4874 -44.5470 -44.5428  -4.2296  -4.2261  -4.1879  -4.1691
    -4.1060  -3.8362  -3.8169  -3.7011  -3.4112  -3.3299  -3.1326  -2.6061
    -2.5796  -2.4942  -2.3985   0.7316   1.3149   1.5348   2.2380   2.8216
     3.5089   4.2965   5.4187   5.9999

          k = 0.3750-0.3750 0.0000 ( 12670 PWs)   bands (ev):

   -45.4975 -45.4882 -44.5478 -44.5436  -4.1331  -4.1237  -4.0942  -4.0771
    -4.0589  -3.8701  -3.7277  -3.7100  -3.3665  -3.3252  -3.1604  -2.7694
    -2.6761  -2.6465  -2.5993  -0.5318   0.2556   1.5189   2.4034   3.3267
     3.4920   4.6370   4.7395   5.7213

          k = 0.3750-0.2500 0.0000 ( 12622 PWs)   bands (ev):

   -45.4990 -45.4897 -44.5495 -44.5454  -4.1263  -3.9515  -3.8559  -3.8205
    -3.7842  -3.7699  -3.7361  -3.5293  -3.4031  -3.3178  -3.2919  -3.2287
    -3.1825  -3.0006  -2.6475  -1.4678  -0.8181   0.3639   2.3301   2.5592
     3.2292   3.3180   4.6582   4.8619

          k = 0.3750-0.1250 0.0000 ( 12609 PWs)   bands (ev):

   -45.5007 -45.4914 -44.5514 -44.5472  -4.1368  -4.0887  -3.9784  -3.8738
    -3.7869  -3.7763  -3.4616  -3.4523  -3.4278  -3.3755  -3.3585  -3.2516
    -3.1366  -2.8892  -2.7024  -1.9042  -1.4119  -0.3664   1.4350   2.1822
     2.4090   2.5900   4.1214   4.2142

          k =-0.5000 0.0000 0.0000 ( 12618 PWs)   bands (ev):

   -45.5007 -45.4914 -44.5514 -44.5471  -4.2592  -4.2456  -4.0436  -4.0116
    -3.9362  -3.8947  -3.5087  -3.3580  -3.2957  -3.2751  -3.2351  -3.1883
    -2.9807  -2.7970  -2.5357  -0.3888  -0.0483  -0.0327   0.4762   0.7247
     1.0272   1.4001   4.4626   4.4695

          k =-0.5000 0.1250 0.0000 ( 12650 PWs)   bands (ev):

   -45.5001 -45.4908 -44.5508 -44.5464  -4.2420  -4.0452  -3.9402  -3.8862
    -3.8282  -3.7242  -3.5443  -3.5067  -3.4584  -3.4384  -3.4216  -3.2143
    -3.1218  -2.8728  -2.5068  -0.2982   0.1068   0.2316   0.8011   0.9724
     1.4366   1.7967   4.6505   4.6586

          k =-0.5000 0.2500 0.0000 ( 12660 PWs)   bands (ev):

   -45.4984 -45.4891 -44.5488 -44.5447  -4.2337  -3.9280  -3.9015  -3.8736
    -3.8579  -3.8322  -3.8011  -3.5227  -3.4499  -3.3298  -3.2503  -3.1998
    -3.1546  -2.9227  -2.4611   0.0174   0.5932   0.8003   1.5311   1.6768
     2.4199   2.8401   5.1985   5.2245

          k =-0.5000 0.3750 0.0000 ( 12656 PWs)   bands (ev):

   -45.4967 -45.4874 -44.5470 -44.5428  -4.2296  -4.2261  -4.1879  -4.1691
    -4.1060  -3.8362  -3.8169  -3.7011  -3.4112  -3.3299  -3.1326  -2.6061
    -2.5796  -2.4942  -2.3985   0.7316   1.3149   1.5348   2.2380   2.8216
     3.5089   4.2965   5.4187   5.9999

          k =-0.5000-0.5000 0.0000 ( 12564 PWs)   bands (ev):

   -45.4958 -45.4864 -44.5460 -44.5416  -4.3436  -4.3083  -4.2887  -4.2208
    -4.2208  -3.8274  -3.8274  -3.7432  -3.3948  -3.3948  -3.0967  -2.4684
    -2.2991  -2.2608  -2.2453   1.5192   1.5192   2.5356   2.5357   3.8690
     4.0334   4.0334   4.4081   5.4601

     the Fermi energy is     1.2334 ev

!    total energy              =    -312.41455208 Ry
     estimated scf accuracy    <          1.5E-09 Ry
     smearing contrib. (-TS)   =       0.00017942 Ry
     internal energy E=F+TS    =    -312.41473151 Ry

     The total energy is F=E-TS. E is the sum of the following terms:
     one-electron contribution =   -2777.61789476 Ry
     hartree contribution      =    1407.22959379 Ry
     xc contribution           =     -81.48950593 Ry
     ewald contribution        =    1139.57579855 Ry
     DFT-D3 Dispersion         =      -0.11272316 Ry

     convergence has been achieved in   8 iterations

     negative rho (up, down):  8.111E-06 0.000E+00

     Forces acting on atoms (cartesian axes, Ry/au):

     atom    1 type  1   force =    -0.00000029    0.00000026    0.00037007
     atom    2 type  1   force =    -0.00000003   -0.00000012   -0.00000001
     atom    3 type  1   force =    -0.00000006   -0.00000030   -0.00013129
     atom    4 type  2   force =     0.00000036    0.00000014   -0.00073565
     atom    5 type  2   force =     0.00000035    0.00000024   -0.00031403
     atom    6 type  2   force =    -0.00000024   -0.00000029    0.00057452
     atom    7 type  2   force =    -0.00000009    0.00000005    0.00023639
     The non-local contrib.  to forces
     atom    1 type  1   force =     0.00000001   -0.00000000   -0.02563581
     atom    2 type  1   force =    -0.00000035   -0.00000019   -0.00033944
     atom    3 type  1   force =    -0.00000004   -0.00000014    0.02554181
     atom    4 type  2   force =    -0.00000492   -0.00000503    0.00032501
     atom    5 type  2   force =    -0.00000488   -0.00000490   -0.00087744
     atom    6 type  2   force =    -0.00000771   -0.00000775   -0.05652856
     atom    7 type  2   force =    -0.00000866   -0.00000863    0.05692181
     The ionic contribution  to forces
     atom    1 type  1   force =    -0.00000178   -0.00000128   72.03340039
     atom    2 type  1   force =    -0.00000484   -0.00000271   -0.06366386
     atom    3 type  1   force =    -0.00000352   -0.00000106  -71.99812426
     atom    4 type  2   force =     0.00000766    0.00000327    9.78230921
     atom    5 type  2   force =     0.00000697    0.00000346   -9.77641546
     atom    6 type  2   force =    -0.00000043   -0.00000157  -27.75518270
     atom    7 type  2   force =    -0.00000406   -0.00000011   27.77767668
     The local contribution  to forces
     atom    1 type  1   force =     0.00000147    0.00000117  -72.00248719
     atom    2 type  1   force =     0.00000495    0.00000265    0.06389677
     atom    3 type  1   force =     0.00000322    0.00000091   71.96758091
     atom    4 type  2   force =    -0.00000235    0.00000194   -9.78202593
     atom    5 type  2   force =    -0.00000166    0.00000175    9.77562630
     atom    6 type  2   force =     0.00000783    0.00000898   27.81010702
     atom    7 type  2   force =     0.00001267    0.00000884  -27.83213307
     The core correction contribution to forces
     atom    1 type  1   force =     0.00000003   -0.00000001   -0.00049051
     atom    2 type  1   force =    -0.00000000    0.00000001    0.00001518
     atom    3 type  1   force =     0.00000002    0.00000002    0.00043543
     atom    4 type  2   force =     0.00000000    0.00000000    0.00000000
     atom    5 type  2   force =     0.00000000    0.00000000    0.00000000
     atom    6 type  2   force =     0.00000000    0.00000000    0.00000000
     atom    7 type  2   force =     0.00000000    0.00000000    0.00000000
     The Hubbard contrib.    to forces
     atom    1 type  1   force =     0.00000000    0.00000000    0.00000000
     atom    2 type  1   force =     0.00000000    0.00000000    0.00000000
     atom    3 type  1   force =     0.00000000    0.00000000    0.00000000
     atom    4 type  2   force =     0.00000000    0.00000000    0.00000000
     atom    5 type  2   force =     0.00000000    0.00000000    0.00000000
     atom    6 type  2   force =     0.00000000    0.00000000    0.00000000
     atom    7 type  2   force =     0.00000000    0.00000000    0.00000000
     The SCF correction term to forces
     atom    1 type  1   force =    -0.00000004    0.00000037    0.00007177
     atom    2 type  1   force =     0.00000021    0.00000012    0.00004089
     atom    3 type  1   force =     0.00000025   -0.00000005    0.00000068
     atom    4 type  2   force =    -0.00000003   -0.00000006    0.00001504
     atom    5 type  2   force =    -0.00000009   -0.00000008   -0.00003575
     atom    6 type  2   force =     0.00000005    0.00000004   -0.00001463
     atom    7 type  2   force =    -0.00000006   -0.00000007    0.00000628

     DFT-D3 dispersion contribution to forces:
     atom    1 type  1   force =     0.00000002   -0.00000000   -0.00448620
     atom    2 type  1   force =    -0.00000001   -0.00000000    0.00005282
     atom    3 type  1   force =     0.00000001    0.00000001    0.00443651
     atom    4 type  2   force =    -0.00000001   -0.00000000   -0.00135661
     atom    5 type  2   force =    -0.00000001   -0.00000000    0.00139068
     atom    6 type  2   force =     0.00000000    0.00000000    0.00219575
     atom    7 type  2   force =     0.00000001    0.00000000   -0.00223295

     Total force =     0.001086     Total SCF correction =     0.000093


     Computing stress (Cartesian axis) and pressure


     negative rho (up, down):  8.111E-06 0.000E+00
          total   stress  (Ry/bohr**3)                   (kbar)     P=       -9.14
  -0.00006740   0.00000000  -0.00000000           -9.92        0.00       -0.00
   0.00000000  -0.00006740   0.00000000            0.00       -9.92        0.00
  -0.00000000   0.00000000  -0.00005163           -0.00        0.00       -7.59

     Energy error            =      1.7E-05 Ry
     Gradient error          =      7.4E-04 Ry/Bohr

     bfgs converged in  31 scf cycles and  30 bfgs steps
     (criteria: energy <  1.0E-04 Ry, force <  1.0E-03 Ry/Bohr)

     End of BFGS Geometry Optimization

     Final energy             =    -312.4145520834 Ry

     File ./LiAg_mp-2426_100_bridge_1/LiAg_mp-2426_100_bridge_1.bfgs deleted, as requested
Begin final coordinates

ATOMIC_POSITIONS (angstrom)
Ag            0.7806878979        0.7806830713       17.8118918886
Ag            0.7806794503        0.7806840918       14.7499968795
Ag            0.7806814574        0.7806879152       11.6781440764
Li            2.3420508945        2.3420524850       16.2837841591
Li            2.3420479040        2.3420548181       13.2196829967
Li            2.3420520569        2.3420594553       10.0913429864
Li            2.3420615426        2.3420533458       19.3874364602
End final coordinates



     Writing all to output data dir ./LiAg_mp-2426_100_bridge_1/LiAg_mp-2426_100_bridge_1.save/

     init_run     :      1.18s CPU      1.98s WALL (       1 calls)
     electrons    :     45.59s CPU     56.77s WALL (      31 calls)
     update_pot   :      4.61s CPU      4.90s WALL (      30 calls)
     forces       :      3.78s CPU      4.52s WALL (      31 calls)
     force_dftd3  :      0.20s CPU      0.36s WALL (      31 calls)
     stress       :     10.95s CPU     11.42s WALL (      31 calls)
     stres_dftd3  :      0.21s CPU      0.41s WALL (      31 calls)

     Called by init_run:
     wfcinit      :      0.20s CPU      0.37s WALL (       1 calls)
     potinit      :      0.40s CPU      0.75s WALL (       1 calls)
     hinit0       :      0.50s CPU      0.69s WALL (       1 calls)

     Called by electrons:
     c_bands      :     35.34s CPU     40.96s WALL (     250 calls)
     sum_band     :      6.40s CPU      7.61s WALL (     250 calls)
     v_of_rho     :      1.86s CPU      3.29s WALL (     268 calls)
     newd         :      1.01s CPU      1.30s WALL (     268 calls)
     mix_rho      :      0.23s CPU      0.36s WALL (     250 calls)
     energy_dftd3 :      0.06s CPU      0.06s WALL (      31 calls)

     Called by c_bands:
     init_us_2    :      0.32s CPU      0.35s WALL (    5067 calls)
     init_us_2:cp :      0.31s CPU      0.35s WALL (    5067 calls)
     cegterg      :     32.83s CPU     35.89s WALL (    2250 calls)

     Called by *egterg:
     cdiaghg      :      8.32s CPU      8.55s WALL (    8587 calls)
     h_psi        :     20.51s CPU     22.78s WALL (    8983 calls)
     s_psi        :      0.68s CPU      0.73s WALL (    8983 calls)
     g_psi        :      0.08s CPU      0.08s WALL (    6724 calls)

     Called by h_psi:
     h_psi:calbec :      1.92s CPU      2.54s WALL (    8983 calls)
     vloc_psi     :     17.82s CPU     19.42s WALL (    8983 calls)
     add_vuspsi   :      0.69s CPU      0.75s WALL (    8983 calls)

     General routines
     calbec       :      2.99s CPU      3.81s WALL (   12628 calls)
     fft          :      2.83s CPU      4.91s WALL (    4240 calls)
     ffts         :      0.48s CPU      0.79s WALL (     518 calls)
     fftw         :     19.49s CPU     21.23s WALL (  375692 calls)
     interpolate  :      0.48s CPU      0.82s WALL (     268 calls)

     Parallel routines

     PWSCF        :   1m 6.86s CPU   1m21.99s WALL


   This run was terminated on:   7:21:46   6Aug2025            

=------------------------------------------------------------------------------=
   JOB DONE.
=------------------------------------------------------------------------------=
