
     Program PWSCF v.7.2 starts on  6Aug2025 at  7:20:11 

     This program is part of the open-source Quantum ESPRESSO suite
     for quantum simulation of materials; please cite
         "P. Giannozzi et al., J. Phys.:Condens. Matter 21 395502 (2009);
         "P. Giannozzi et al., J. Phys.:Condens. Matter 29 465901 (2017);
         "P. Giannozzi et al., J. Chem. Phys. 152 154105 (2020);
          URL http://www.quantum-espresso.org", 
     in publications or presentations arising from this work. More details at
     http://www.quantum-espresso.org/quote

     Parallel version (MPI & OpenMP), running on     256 processor cores
     Number of MPI processes:               256
     Threads/MPI process:                     1

     MPI processes distributed on     4 nodes
     241154 MiB available memory on the printing compute node when the environment starts

     Reading input from LiAg_mp-2426_100_bridge_0.in

     Current dimensions of program PWSCF are:
     Max number of different atomic species (ntypx) = 10
     Max number of k-points (npk) =  40000
     Max angular momentum in pseudopotentials (lmaxx) =  4
     Message from routine iosys:
     restart disabled: needed files not found

     K-points division:     npool     =       4
     R & G space division:  proc/nbgrp/npool/nimage =      64
     Subspace diagonalization in iterative solution of the eigenvalue problem:
     a serial algorithm will be used


     Parallelization info
     --------------------
     sticks:   dense  smooth     PW     G-vecs:    dense   smooth      PW
     Min          21       9      2                 5367     1557     224
     Max          22      10      3                 5430     1610     289
     Sum        1373     609    185               345099   100593   16881

     Using Slab Decomposition



     bravais-lattice index     =            0
     lattice parameter (alat)  =       5.9011  a.u.
     unit-cell volume          =    1829.8696 (a.u.)^3
     number of atoms/cell      =            7
     number of atomic types    =            2
     number of electrons       =        45.00
     number of Kohn-Sham states=           28
     kinetic-energy cutoff     =      55.0000  Ry
     charge density cutoff     =     500.0000  Ry
     scf convergence threshold =      1.0E-06
     mixing beta               =       0.3000
     number of iterations used =            8  plain     mixing
     energy convergence thresh.=      1.0E-04
     force convergence thresh. =      1.0E-03
     Exchange-correlation= PBE
                           (   1   4   3   4   0   0   0)
     nstep                     =          500


     celldm(1)=   5.901124  celldm(2)=   0.000000  celldm(3)=   0.000000
     celldm(4)=   0.000000  celldm(5)=   0.000000  celldm(6)=   0.000000

     crystal axes: (cart. coord. in units of alat)
               a(1) = (   1.000000   0.000000   0.000000 )  
               a(2) = (   0.000000   1.000000   0.000000 )  
               a(3) = (   0.000000   0.000000   8.904631 )  

     reciprocal axes: (cart. coord. in units 2 pi/alat)
               b(1) = (  1.000000 -0.000000  0.000000 )  
               b(2) = (  0.000000  1.000000  0.000000 )  
               b(3) = ( -0.000000 -0.000000  0.112301 )  


     PseudoPot. # 1 for Ag read from file:
     /home/ecastro/trabajo_final/pseudos/Ag.pbe-n-rrkjus_psl.1.0.0.UPF
     MD5 check sum: 81cdf87bacf708300839c66ee23ce017
     Pseudo is Ultrasoft + core correction, Zval = 11.0
     Generated using &quot;atomic&quot; code by A. Dal Corso  v.6.2.2
     Using radial grid of 1237 points,  6 beta functions with: 
                l(1) =   0
                l(2) =   0
                l(3) =   1
                l(4) =   1
                l(5) =   2
                l(6) =   2
     Q(r) pseudized with 0 coefficients 


     PseudoPot. # 2 for Li read from file:
     /home/ecastro/trabajo_final/pseudos/Li.pbe-s-rrkjus_psl.1.0.0.UPF
     MD5 check sum: 9f98d2529904d60b716d33989e9bc179
     Pseudo is Ultrasoft, Zval =  3.0
     Generated using &quot;atomic&quot; code by A. Dal Corso  v.6.3MaX
     Using radial grid of 1017 points,  4 beta functions with: 
                l(1) =   0
                l(2) =   0
                l(3) =   1
                l(4) =   1
     Q(r) pseudized with 0 coefficients 


     atomic species   valence    mass     pseudopotential
        Ag            11.00   107.86820     Ag( 1.00)
        Li             3.00     6.94100     Li( 1.00)

     No symmetry found



   Cartesian axes

     site n.     atom                  positions (alat units)
         1           Ag  tau(   1) = (   0.2499980   0.2499997   5.6981983  )
         2           Ag  tau(   2) = (   0.2500000   0.2500000   4.7023156  )
         3           Ag  tau(   3) = (   0.2500000   0.2500000   3.7023156  )
         4           Li  tau(   4) = (   0.7499992   0.7500002   5.2089093  )
         5           Li  tau(   5) = (   0.7500000   0.7500000   4.2023156  )
         6           Li  tau(   6) = (   0.7500000   0.7500000   3.2023156  )
         7           Li  tau(   7) = (   0.2499980   0.7499997   6.3386614  )

     --------------------------------------------
     DFT-D3 Dispersion Correction (no 3-body):
     --------------------------------------------
       Reference C6 values for interpolation: 

         atom   Coordination number   C6
         Li         0.000          2326.89
         Li         0.987           170.64
         Ag         0.000           853.49
         Ag         0.968           537.23

       Values used:

         atom   Coordination number  R0_AB[au]  C6      C8
         Ag         8.073            3.147    537.23  47741.54
         Ag        10.130            3.147    537.23  47741.54
         Ag         9.669            3.147    537.23  47741.54
         Li        10.677            3.303    170.64  12899.87
         Li        11.180            3.303    170.64  12899.87
         Li         6.833            3.303    170.64  12899.87
         Li         4.666            3.303    170.64  12899.87

         Molecular C6 ( Ry / a.u.^6 ) =     14508.77


     number of k points=    34  Methfessel-Paxton smearing, width (Ry)=  0.0300
                       cart. coord. in units 2pi/alat
        k(    1) = (   0.0000000   0.0000000   0.0000000), wk =   0.0312500
        k(    2) = (   0.0000000   0.1250000   0.0000000), wk =   0.0625000
        k(    3) = (   0.0000000   0.2500000   0.0000000), wk =   0.0625000
        k(    4) = (   0.0000000   0.3750000   0.0000000), wk =   0.0625000
        k(    5) = (   0.0000000  -0.5000000   0.0000000), wk =   0.0312500
        k(    6) = (   0.1250000  -0.0000000   0.0000000), wk =   0.0625000
        k(    7) = (   0.1250000   0.1250000   0.0000000), wk =   0.0625000
        k(    8) = (   0.1250000   0.2500000   0.0000000), wk =   0.0625000
        k(    9) = (   0.1250000   0.3750000   0.0000000), wk =   0.0625000
        k(   10) = (   0.1250000  -0.5000000   0.0000000), wk =   0.0625000
        k(   11) = (   0.1250000  -0.3750000   0.0000000), wk =   0.0625000
        k(   12) = (   0.1250000  -0.2500000   0.0000000), wk =   0.0625000
        k(   13) = (   0.1250000  -0.1250000   0.0000000), wk =   0.0625000
        k(   14) = (   0.2500000  -0.0000000   0.0000000), wk =   0.0625000
        k(   15) = (   0.2500000   0.1250000   0.0000000), wk =   0.0625000
        k(   16) = (   0.2500000   0.2500000   0.0000000), wk =   0.0625000
        k(   17) = (   0.2500000   0.3750000   0.0000000), wk =   0.0625000
        k(   18) = (   0.2500000  -0.5000000   0.0000000), wk =   0.0625000
        k(   19) = (   0.2500000  -0.3750000   0.0000000), wk =   0.0625000
        k(   20) = (   0.2500000  -0.2500000   0.0000000), wk =   0.0625000
        k(   21) = (   0.2500000  -0.1250000   0.0000000), wk =   0.0625000
        k(   22) = (   0.3750000  -0.0000000   0.0000000), wk =   0.0625000
        k(   23) = (   0.3750000   0.1250000   0.0000000), wk =   0.0625000
        k(   24) = (   0.3750000   0.2500000   0.0000000), wk =   0.0625000
        k(   25) = (   0.3750000   0.3750000   0.0000000), wk =   0.0625000
        k(   26) = (   0.3750000  -0.5000000   0.0000000), wk =   0.0625000
        k(   27) = (   0.3750000  -0.3750000   0.0000000), wk =   0.0625000
        k(   28) = (   0.3750000  -0.2500000   0.0000000), wk =   0.0625000
        k(   29) = (   0.3750000  -0.1250000   0.0000000), wk =   0.0625000
        k(   30) = (  -0.5000000   0.0000000   0.0000000), wk =   0.0312500
        k(   31) = (  -0.5000000   0.1250000   0.0000000), wk =   0.0625000
        k(   32) = (  -0.5000000   0.2500000   0.0000000), wk =   0.0625000
        k(   33) = (  -0.5000000   0.3750000   0.0000000), wk =   0.0625000
        k(   34) = (  -0.5000000  -0.5000000   0.0000000), wk =   0.0312500

     Dense  grid:   345099 G-vectors     FFT dimensions: (  45,  45, 375)

     Smooth grid:   100593 G-vectors     FFT dimensions: (  27,  27, 250)

     Estimated max dynamical RAM per process >      12.05 MB

     Estimated total dynamical RAM >       2.77 GB
     Cannot read rho : file not found

     Initial potential from superposition of free atoms

     starting charge      44.9804, renormalised to      45.0000

     negative rho (up, down):  3.265E-05 0.000E+00
     Message from routine qexsd_readschema :
     xml data file ./LiAg_mp-2426_100_bridge_0/LiAg_mp-2426_100_bridge_0.save/data-fi
     Cannot read wfcs: file not found
     Starting wfcs are   47 randomized atomic wfcs

     total cpu time spent up to now is        2.6 secs

     per-process dynamical memory:   170.9 Mb

     Self-consistent Calculation

     iteration #  1     ecut=    55.00 Ry     beta= 0.30
     Davidson diagonalization with overlap
     ethr =  1.00E-05,  avg # of iterations = 14.3

     negative rho (up, down):  2.669E-05 0.000E+00

     total cpu time spent up to now is        3.6 secs

     total energy              =    -312.13446618 Ry
     estimated scf accuracy    <       0.75250260 Ry

     iteration #  2     ecut=    55.00 Ry     beta= 0.30
     Davidson diagonalization with overlap
     ethr =  1.67E-03,  avg # of iterations =  6.8

     negative rho (up, down):  1.034E-04 0.000E+00

     total cpu time spent up to now is        4.2 secs

     total energy              =    -311.49493193 Ry
     estimated scf accuracy    <      16.70730172 Ry

     iteration #  3     ecut=    55.00 Ry     beta= 0.30
     Davidson diagonalization with overlap
     ethr =  1.67E-03,  avg # of iterations =  5.6

     negative rho (up, down):  1.234E-04 0.000E+00

     total cpu time spent up to now is        4.7 secs

     total energy              =    -312.18831866 Ry
     estimated scf accuracy    <       6.13813211 Ry

     iteration #  4     ecut=    55.00 Ry     beta= 0.30
     Davidson diagonalization with overlap
     ethr =  1.67E-03,  avg # of iterations =  2.1

     negative rho (up, down):  6.396E-05 0.000E+00

     total cpu time spent up to now is        5.3 secs

     total energy              =    -312.38222136 Ry
     estimated scf accuracy    <       0.15630894 Ry

     iteration #  5     ecut=    55.00 Ry     beta= 0.30
     Davidson diagonalization with overlap
     ethr =  3.47E-04,  avg # of iterations =  2.9

     negative rho (up, down):  3.161E-05 0.000E+00

     total cpu time spent up to now is        5.6 secs

     total energy              =    -312.38637748 Ry
     estimated scf accuracy    <       0.02316621 Ry

     iteration #  6     ecut=    55.00 Ry     beta= 0.30
     Davidson diagonalization with overlap
     ethr =  5.15E-05,  avg # of iterations =  6.3

     negative rho (up, down):  1.738E-05 0.000E+00

     total cpu time spent up to now is        5.9 secs

     total energy              =    -312.38783758 Ry
     estimated scf accuracy    <       0.00152823 Ry

     iteration #  7     ecut=    55.00 Ry     beta= 0.30
     Davidson diagonalization with overlap
     ethr =  3.40E-06,  avg # of iterations =  5.7

     negative rho (up, down):  2.141E-05 0.000E+00

     total cpu time spent up to now is        6.2 secs

     total energy              =    -312.38803223 Ry
     estimated scf accuracy    <       0.00033250 Ry

     iteration #  8     ecut=    55.00 Ry     beta= 0.30
     Davidson diagonalization with overlap
     ethr =  7.39E-07,  avg # of iterations =  4.0

     negative rho (up, down):  1.703E-05 0.000E+00

     total cpu time spent up to now is        6.4 secs

     total energy              =    -312.38805965 Ry
     estimated scf accuracy    <       0.00004950 Ry

     iteration #  9     ecut=    55.00 Ry     beta= 0.30
     Davidson diagonalization with overlap
     ethr =  1.10E-07,  avg # of iterations =  2.2

     negative rho (up, down):  1.385E-05 0.000E+00

     total cpu time spent up to now is        6.6 secs

     total energy              =    -312.38806599 Ry
     estimated scf accuracy    <       0.00001961 Ry

     iteration # 10     ecut=    55.00 Ry     beta= 0.30
     Davidson diagonalization with overlap
     ethr =  4.36E-08,  avg # of iterations =  2.1

     negative rho (up, down):  1.122E-05 0.000E+00

     total cpu time spent up to now is        6.8 secs

     total energy              =    -312.38806852 Ry
     estimated scf accuracy    <       0.00000337 Ry

     iteration # 11     ecut=    55.00 Ry     beta= 0.30
     Davidson diagonalization with overlap
     ethr =  7.50E-09,  avg # of iterations =  3.5

     negative rho (up, down):  7.784E-06 0.000E+00

     total cpu time spent up to now is        7.0 secs

     End of self-consistent calculation

          k = 0.0000 0.0000 0.0000 ( 12493 PWs)   bands (ev):

   -46.0218 -45.5416 -44.6356 -44.6328  -4.8755  -4.5416  -4.3635  -4.2673
    -4.1824  -4.1672  -4.0626  -3.4816  -3.3146  -3.2904  -3.1239  -3.0643
    -2.9055  -2.8604  -2.7947  -2.7676  -2.6518  -2.1352  -0.4646   0.6675
     1.7431   3.2028   4.1281   4.1613

          k = 0.0000 0.1250 0.0000 ( 12528 PWs)   bands (ev):

   -46.0211 -45.5409 -44.6349 -44.6319  -4.6631  -4.3551  -4.1979  -4.1327
    -4.0959  -4.0566  -3.9896  -3.5463  -3.3764  -3.2723  -3.2651  -3.0517
    -2.9823  -2.8828  -2.8515  -2.8438  -2.7291  -2.0038  -0.2407   0.8561
     1.9700   3.4126   4.3629   4.3846

          k = 0.0000 0.2500 0.0000 ( 12550 PWs)   bands (ev):

   -46.0194 -45.5391 -44.6330 -44.6299  -4.3846  -4.1663  -4.1008  -3.9584
    -3.8617  -3.6496  -3.5742  -3.4000  -3.3698  -3.3357  -3.2288  -3.0854
    -3.0414  -3.0031  -2.9088  -2.8582  -2.8274  -1.6099   0.3076   1.3908
     2.5456   3.8126   4.5158   4.7132

          k = 0.0000 0.3750 0.0000 ( 12594 PWs)   bands (ev):

   -46.0178 -45.5374 -44.6310 -44.6281  -4.2627  -4.1384  -4.0592  -4.0320
    -3.8699  -3.8402  -3.4979  -3.3797  -3.2719  -3.2094  -3.1820  -3.0798
    -2.9808  -2.8050  -2.7956  -2.0499  -1.6050  -0.6918   0.9423   1.9321
     2.0075   2.3058   3.6543   3.9064

          k = 0.0000-0.5000 0.0000 ( 12618 PWs)   bands (ev):

   -46.0171 -45.5367 -44.6302 -44.6273  -4.2431  -4.2211  -4.0176  -3.9961
    -3.9428  -3.8333  -3.5663  -3.3465  -3.3444  -3.2782  -3.1638  -3.1490
    -2.9677  -2.7955  -2.6005  -0.3715  -0.0214  -0.0136   0.5160   0.6906
     1.0327   1.2811   4.1313   4.4245

          k = 0.1250-0.0000 0.0000 ( 12528 PWs)   bands (ev):

   -46.0211 -45.5409 -44.6349 -44.6319  -4.6705  -4.3711  -4.2463  -4.1758
    -4.1225  -4.0454  -3.8727  -3.5313  -3.3499  -3.2970  -3.2067  -3.1114
    -2.9451  -2.8986  -2.8796  -2.8453  -2.7265  -1.9850  -0.2218   0.8539
     1.9620   3.4160   4.3579   4.3864

          k = 0.1250 0.1250 0.0000 ( 12540 PWs)   bands (ev):

   -46.0204 -45.5402 -44.6341 -44.6311  -4.4246  -4.1408  -4.0980  -4.0910
    -4.0176  -3.9678  -3.8405  -3.5643  -3.4292  -3.3006  -3.2600  -3.1761
    -2.9708  -2.9649  -2.9366  -2.9143  -2.8007  -1.8380   0.0103   1.0514
     2.2015   3.6423   4.5938   4.6186

          k = 0.1250 0.2500 0.0000 ( 12575 PWs)   bands (ev):

   -46.0188 -45.5385 -44.6321 -44.6292  -4.1611  -4.0375  -3.9485  -3.8559
    -3.7653  -3.6478  -3.5717  -3.4378  -3.4029  -3.3901  -3.3170  -3.1648
    -3.1245  -3.0782  -3.0080  -2.9213  -2.6025  -1.3897   0.5863   1.6141
     2.8145   4.1036   4.6854   4.9760

          k = 0.1250 0.3750 0.0000 ( 12609 PWs)   bands (ev):

   -46.0171 -45.5367 -44.6302 -44.6273  -4.1312  -4.0600  -3.9646  -3.8515
    -3.8258  -3.6808  -3.4902  -3.4558  -3.4307  -3.3930  -3.2695  -3.2552
    -3.1080  -2.8902  -2.7507  -1.8812  -1.3757  -0.4111   1.2742   2.2051
     2.2485   2.5933   3.8633   4.1172

          k = 0.1250-0.5000 0.0000 ( 12650 PWs)   bands (ev):

   -46.0166 -45.5361 -44.6296 -44.6266  -4.2362  -4.0131  -3.9298  -3.9261
    -3.8043  -3.6391  -3.5534  -3.5329  -3.4762  -3.4220  -3.3335  -3.2275
    -3.0859  -2.8756  -2.5710  -0.2738   0.1458   0.2575   0.8457   0.9235
     1.4420   1.6492   4.2746   4.6835

          k = 0.1250-0.3750 0.0000 ( 12609 PWs)   bands (ev):

   -46.0171 -45.5367 -44.6302 -44.6273  -4.1312  -4.0600  -3.9646  -3.8515
    -3.8258  -3.6808  -3.4902  -3.4558  -3.4307  -3.3930  -3.2695  -3.2552
    -3.1080  -2.8902  -2.7507  -1.8812  -1.3757  -0.4111   1.2742   2.2051
     2.2485   2.5933   3.8633   4.1172

          k = 0.1250-0.2500 0.0000 ( 12575 PWs)   bands (ev):

   -46.0188 -45.5385 -44.6321 -44.6292  -4.1611  -4.0375  -3.9485  -3.8559
    -3.7653  -3.6478  -3.5717  -3.4378  -3.4029  -3.3901  -3.3170  -3.1648
    -3.1245  -3.0782  -3.0080  -2.9213  -2.6025  -1.3897   0.5863   1.6141
     2.8145   4.1036   4.6854   4.9760

          k = 0.1250-0.1250 0.0000 ( 12540 PWs)   bands (ev):

   -46.0204 -45.5402 -44.6341 -44.6311  -4.4246  -4.1408  -4.0980  -4.0910
    -4.0176  -3.9678  -3.8405  -3.5643  -3.4292  -3.3006  -3.2600  -3.1761
    -2.9708  -2.9649  -2.9366  -2.9143  -2.8007  -1.8380   0.0103   1.0514
     2.2015   3.6423   4.5938   4.6186

          k = 0.2500-0.0000 0.0000 ( 12550 PWs)   bands (ev):

   -46.0195 -45.5391 -44.6330 -44.6299  -4.3986  -4.1947  -4.0982  -4.0906
    -3.8405  -3.6138  -3.5601  -3.3686  -3.3543  -3.2543  -3.2277  -3.0986
    -3.0650  -3.0273  -2.9015  -2.8719  -2.7922  -1.5551   0.3718   1.3934
     2.5255   3.8157   4.5404   4.9511

          k = 0.2500 0.1250 0.0000 ( 12575 PWs)   bands (ev):

   -46.0189 -45.5385 -44.6321 -44.6292  -4.1661  -4.0359  -3.9737  -3.8852
    -3.8335  -3.6167  -3.5644  -3.4439  -3.3826  -3.3619  -3.2479  -3.2080
    -3.1303  -3.0750  -2.9941  -2.9602  -2.5565  -1.3508   0.6322   1.6146
     2.8038   4.1056   4.7250   5.1985

          k = 0.2500 0.2500 0.0000 ( 12610 PWs)   bands (ev):

   -46.0173 -45.5368 -44.6303 -44.6274  -4.0129  -3.8658  -3.7676  -3.7054
    -3.6495  -3.6095  -3.5042  -3.4985  -3.4799  -3.4009  -3.3458  -3.3303
    -3.2029  -3.1207  -3.0425  -2.6473  -1.9657  -0.7563   1.2850   2.2494
     3.5384   4.4696   4.8887   5.4588

          k = 0.2500 0.3750 0.0000 ( 12622 PWs)   bands (ev):

   -46.0156 -45.5351 -44.6283 -44.6255  -4.1145  -3.9385  -3.8499  -3.8152
    -3.7716  -3.7629  -3.6323  -3.5041  -3.4452  -3.3556  -3.2936  -3.2024
    -3.1075  -3.0099  -2.7001  -1.4190  -0.7449   0.3363   2.1049   2.6193
     3.0955   3.3096   4.4178   4.7062

          k = 0.2500-0.5000 0.0000 ( 12660 PWs)   bands (ev):

   -46.0150 -45.5345 -44.6276 -44.6248  -4.2204  -3.9273  -3.8976  -3.8825
    -3.8641  -3.7667  -3.7086  -3.4945  -3.4944  -3.3678  -3.2560  -3.1742
    -3.0710  -2.9185  -2.5208   0.0658   0.6692   0.8501   1.5967   1.6085
     2.4453   2.6163   4.6245   5.1734

          k = 0.2500-0.3750 0.0000 ( 12622 PWs)   bands (ev):

   -46.0156 -45.5351 -44.6283 -44.6255  -4.1145  -3.9385  -3.8499  -3.8152
    -3.7716  -3.7629  -3.6323  -3.5041  -3.4452  -3.3556  -3.2936  -3.2024
    -3.1075  -3.0099  -2.7001  -1.4190  -0.7449   0.3363   2.1049   2.6193
     3.0955   3.3096   4.4178   4.7062

          k = 0.2500-0.2500 0.0000 ( 12610 PWs)   bands (ev):

   -46.0173 -45.5368 -44.6303 -44.6274  -4.0129  -3.8658  -3.7676  -3.7054
    -3.6495  -3.6095  -3.5042  -3.4985  -3.4799  -3.4009  -3.3458  -3.3303
    -3.2029  -3.1207  -3.0425  -2.6473  -1.9657  -0.7563   1.2850   2.2494
     3.5384   4.4696   4.8889   5.4589

          k = 0.2500-0.1250 0.0000 ( 12575 PWs)   bands (ev):

   -46.0189 -45.5385 -44.6321 -44.6292  -4.1661  -4.0359  -3.9737  -3.8852
    -3.8335  -3.6167  -3.5644  -3.4439  -3.3826  -3.3619  -3.2479  -3.2080
    -3.1303  -3.0750  -2.9941  -2.9602  -2.5565  -1.3508   0.6322   1.6146
     2.8038   4.1056   4.7250   5.1985

          k = 0.3750-0.0000 0.0000 ( 12594 PWs)   bands (ev):

   -46.0180 -45.5374 -44.6310 -44.6281  -4.2748  -4.1134  -4.0906  -4.0209
    -3.9882  -3.7828  -3.4619  -3.3453  -3.2718  -3.2163  -3.2014  -3.0665
    -3.0426  -2.8509  -2.7753  -2.0288  -1.5421  -0.6059   1.0218   1.8640
     2.0942   2.8237   3.3400   3.9079

          k = 0.3750 0.1250 0.0000 ( 12609 PWs)   bands (ev):

   -46.0173 -45.5367 -44.6302 -44.6273  -4.1072  -4.0572  -3.9636  -3.8806
    -3.7833  -3.7679  -3.4670  -3.4568  -3.4187  -3.3927  -3.2671  -3.2430
    -3.1731  -2.9327  -2.7367  -1.8608  -1.3163  -0.3303   1.3380   2.1261
     2.3388   3.0823   3.5562   4.1201

          k = 0.3750 0.2500 0.0000 ( 12622 PWs)   bands (ev):

   -46.0157 -45.5351 -44.6283 -44.6255  -4.0910  -3.9295  -3.8459  -3.8156
    -3.7890  -3.7140  -3.6338  -3.5396  -3.4139  -3.3360  -3.3010  -3.2309
    -3.1999  -3.0296  -2.6919  -1.4051  -0.7066   0.3939   2.1227   2.6421
     3.0451   3.7285   4.1539   4.7239

          k = 0.3750 0.3750 0.0000 ( 12670 PWs)   bands (ev):

   -46.0142 -45.5335 -44.6266 -44.6238  -4.1226  -4.1075  -4.0912  -4.0585
    -3.9074  -3.8578  -3.7298  -3.6794  -3.3896  -3.3172  -3.2173  -2.7655
    -2.6880  -2.6695  -2.6156  -0.4534   0.3785   1.5254   2.5099   3.1547
     3.6482   4.3237   4.6097   5.2753

          k = 0.3750-0.5000 0.0000 ( 12656 PWs)   bands (ev):

   -46.0135 -45.5328 -44.6258 -44.6229  -4.2247  -4.2114  -4.1998  -4.0623
    -4.0115  -3.8577  -3.7913  -3.6616  -3.4481  -3.3043  -3.1941  -2.6568
    -2.5785  -2.4787  -2.4018   0.8256   1.4026   1.6864   2.4077   2.6983
     3.6417   3.9160   4.8532   5.4730

          k = 0.3750-0.3750 0.0000 ( 12670 PWs)   bands (ev):

   -46.0142 -45.5335 -44.6266 -44.6238  -4.1226  -4.1075  -4.0912  -4.0585
    -3.9074  -3.8578  -3.7298  -3.6794  -3.3896  -3.3172  -3.2173  -2.7655
    -2.6880  -2.6695  -2.6156  -0.4534   0.3785   1.5254   2.5099   3.1547
     3.6482   4.3237   4.6097   5.2758

          k = 0.3750-0.2500 0.0000 ( 12622 PWs)   bands (ev):

   -46.0157 -45.5351 -44.6283 -44.6255  -4.0910  -3.9295  -3.8459  -3.8156
    -3.7890  -3.7140  -3.6338  -3.5396  -3.4139  -3.3360  -3.3010  -3.2309
    -3.1999  -3.0296  -2.6919  -1.4051  -0.7066   0.3939   2.1227   2.6421
     3.0451   3.7285   4.1539   4.7239

          k = 0.3750-0.1250 0.0000 ( 12609 PWs)   bands (ev):

   -46.0173 -45.5367 -44.6302 -44.6273  -4.1072  -4.0572  -3.9636  -3.8806
    -3.7833  -3.7679  -3.4670  -3.4568  -3.4187  -3.3927  -3.2671  -3.2430
    -3.1731  -2.9327  -2.7367  -1.8608  -1.3163  -0.3303   1.3380   2.1261
     2.3388   3.0823   3.5562   4.1201

          k =-0.5000 0.0000 0.0000 ( 12618 PWs)   bands (ev):

   -46.0173 -45.5367 -44.6302 -44.6273  -4.2330  -4.2170  -4.0508  -3.9853
    -3.9451  -3.8798  -3.5236  -3.3463  -3.3123  -3.2777  -3.1908  -3.1338
    -3.0300  -2.8416  -2.5761  -0.3622  -0.0499   0.0401   0.3819   0.9210
     0.9526   2.1870   3.4162   4.3308

          k =-0.5000 0.1250 0.0000 ( 12650 PWs)   bands (ev):

   -46.0167 -45.5361 -44.6296 -44.6266  -4.2105  -4.0116  -3.9267  -3.8655
    -3.8364  -3.7332  -3.5379  -3.5044  -3.4743  -3.4301  -3.3219  -3.2241
    -3.1571  -2.9172  -2.5543  -0.2650   0.2124   0.2303   0.7148   1.2289
     1.3188   2.4187   3.6444   4.5105

          k =-0.5000 0.2500 0.0000 ( 12660 PWs)   bands (ev):

   -46.0151 -45.5345 -44.6276 -44.6248  -4.1955  -3.9170  -3.8882  -3.8805
    -3.8158  -3.7871  -3.7039  -3.5315  -3.4409  -3.3661  -3.2611  -3.2024
    -3.1757  -2.9505  -2.5150   0.0687   0.7267   0.8509   1.5150   1.9231
     2.2801   3.1001   4.2656   5.0083

          k =-0.5000 0.3750 0.0000 ( 12656 PWs)   bands (ev):

   -46.0135 -45.5328 -44.6258 -44.6229  -4.2244  -4.2085  -4.1788  -4.0856
    -4.0098  -3.8146  -3.7887  -3.7010  -3.3864  -3.3608  -3.1962  -2.6555
    -2.5846  -2.4952  -2.4191   0.8087   1.4339   1.6863   2.4394   2.9241
     3.4502   4.0025   4.9445   5.4117

          k =-0.5000-0.5000 0.0000 ( 12564 PWs)   bands (ev):

   -46.0125 -45.5318 -44.6249 -44.6217  -4.3381  -4.3280  -4.1977  -4.1738
    -4.1229  -3.8447  -3.7747  -3.7249  -3.4278  -3.3630  -3.1668  -2.5508
    -2.3032  -2.2843  -2.2129   1.6285   1.6704   2.7843   2.9079   3.5330
     3.9550   4.4487   4.5650   4.6439

     the Fermi energy is     1.1456 ev

!    total energy              =    -312.38806843 Ry
     estimated scf accuracy    <       0.00000068 Ry
     smearing contrib. (-TS)   =       0.00067063 Ry
     internal energy E=F+TS    =    -312.38873906 Ry

     The total energy is F=E-TS. E is the sum of the following terms:
     one-electron contribution =   -2697.36931776 Ry
     hartree contribution      =    1367.00914996 Ry
     xc contribution           =     -81.44212981 Ry
     ewald contribution        =    1099.52608094 Ry
     DFT-D3 Dispersion         =      -0.11252240 Ry

     convergence has been achieved in  11 iterations

     negative rho (up, down):  7.784E-06 0.000E+00

     Forces acting on atoms (cartesian axes, Ry/au):

     atom    1 type  1   force =    -0.00000070    0.00000014   -0.01030731
     atom    2 type  1   force =    -0.00000014    0.00000103    0.00068050
     atom    3 type  1   force =     0.00000230   -0.00000034    0.00241152
     atom    4 type  2   force =     0.00000005    0.00000000   -0.00060913
     atom    5 type  2   force =    -0.00000091    0.00000011    0.00056149
     atom    6 type  2   force =    -0.00000078   -0.00000095   -0.00026049
     atom    7 type  2   force =     0.00000017    0.00000002    0.00752343
     The non-local contrib.  to forces
     atom    1 type  1   force =    -0.00000092    0.00000044    0.03597104
     atom    2 type  1   force =     0.00000173    0.00000193   -0.00428947
     atom    3 type  1   force =     0.00000022   -0.00000060    0.02399949
     atom    4 type  2   force =    -0.00000472   -0.00000440    0.00034040
     atom    5 type  2   force =    -0.00000432   -0.00000431    0.00015205
     atom    6 type  2   force =    -0.00000769   -0.00000804   -0.05715417
     atom    7 type  2   force =     0.00001135   -0.00000724    0.05087751
     The ionic contribution  to forces
     atom    1 type  1   force =     0.00000289    0.00000151   70.46069894
     atom    2 type  1   force =    -0.00000057    0.00000098    0.27731657
     atom    3 type  1   force =    -0.00000000    0.00000000  -71.03171102
     atom    4 type  2   force =    -0.00000239   -0.00000246    9.86676416
     atom    5 type  2   force =     0.00000004   -0.00000002   -9.58707248
     atom    6 type  2   force =     0.00000000   -0.00000000  -27.49732469
     atom    7 type  2   force =     0.00000004   -0.00000001   27.51132852
     The local contribution  to forces
     atom    1 type  1   force =    -0.00000176   -0.00000044  -70.50109715
     atom    2 type  1   force =     0.00000001   -0.00000057   -0.27138532
     atom    3 type  1   force =    -0.00000178   -0.00000063   71.00577934
     atom    4 type  2   force =     0.00000747    0.00000649   -9.86602557
     atom    5 type  2   force =     0.00000375    0.00000375    9.58630647
     atom    6 type  2   force =     0.00000688    0.00000727   27.55183903
     atom    7 type  2   force =    -0.00001074    0.00000789  -27.55205089
     The core correction contribution to forces
     atom    1 type  1   force =    -0.00000004   -0.00000002    0.00047363
     atom    2 type  1   force =     0.00000003    0.00000003   -0.00016634
     atom    3 type  1   force =    -0.00000022    0.00000003   -0.00013049
     atom    4 type  2   force =     0.00000000    0.00000000    0.00000000
     atom    5 type  2   force =     0.00000000    0.00000000    0.00000000
     atom    6 type  2   force =     0.00000000    0.00000000    0.00000000
     atom    7 type  2   force =     0.00000000    0.00000000    0.00000000
     The Hubbard contrib.    to forces
     atom    1 type  1   force =     0.00000000    0.00000000    0.00000000
     atom    2 type  1   force =     0.00000000    0.00000000    0.00000000
     atom    3 type  1   force =     0.00000000    0.00000000    0.00000000
     atom    4 type  2   force =     0.00000000    0.00000000    0.00000000
     atom    5 type  2   force =     0.00000000    0.00000000    0.00000000
     atom    6 type  2   force =     0.00000000    0.00000000    0.00000000
     atom    7 type  2   force =     0.00000000    0.00000000    0.00000000
     The SCF correction term to forces
     atom    1 type  1   force =    -0.00000021   -0.00000154   -0.00269892
     atom    2 type  1   force =    -0.00000070   -0.00000153   -0.00063079
     atom    3 type  1   force =     0.00000474    0.00000067    0.00035407
     atom    4 type  2   force =     0.00000034    0.00000018   -0.00027691
     atom    5 type  2   force =     0.00000029    0.00000050   -0.00012174
     atom    6 type  2   force =     0.00000069   -0.00000037    0.00013278
     atom    7 type  2   force =     0.00000019   -0.00000081   -0.00067699

     DFT-D3 dispersion contribution to forces:
     atom    1 type  1   force =    -0.00000001   -0.00000000   -0.00372327
     atom    2 type  1   force =     0.00000001    0.00000000   -0.00023257
     atom    3 type  1   force =    -0.00000000    0.00000000    0.00405170
     atom    4 type  2   force =     0.00000000    0.00000000   -0.00147963
     atom    5 type  2   force =     0.00000000   -0.00000000    0.00122877
     atom    6 type  2   force =    -0.00000000    0.00000000    0.00217815
     atom    7 type  2   force =     0.00000000   -0.00000000   -0.00202315

     Total force =     0.013034     Total SCF correction =     0.002894
     SCF correction compared to forces is large: reduce conv_thr to get better values


     Computing stress (Cartesian axis) and pressure


     negative rho (up, down):  7.784E-06 0.000E+00
          total   stress  (Ry/bohr**3)                   (kbar)     P=      -12.09
  -0.00012204  -0.00000000  -0.00000000          -17.95       -0.00       -0.00
  -0.00000000  -0.00006948  -0.00000000           -0.00      -10.22       -0.00
  -0.00000000  -0.00000000  -0.00005500           -0.00       -0.00       -8.09


     BFGS Geometry Optimization
     Energy error            =      0.0E+00 Ry
     Gradient error          =      1.0E-02 Ry/Bohr

     number of scf cycles    =   1
     number of bfgs steps    =   0

     energy             new  =    -312.3880684261 Ry

     new trust radius        =       0.0103073085 bohr
     new conv_thr            =       0.0000010000 Ry


ATOMIC_POSITIONS (angstrom)
Ag            0.7806783932        0.7806843515       17.7885393057
Ag            0.7806850088        0.7806856253       14.6844705979
Ag            0.7806863018        0.7806849005       11.5626462853
Li            2.3420528790        2.3420557999       16.2657487207
Li            2.3420547683        2.3420553080       13.1230374554
Li            2.3420548341        2.3420547432        9.9998621570
Li            0.7806788537        2.3420544540       19.7979749247



     Writing config-only to output data dir ./LiAg_mp-2426_100_bridge_0/LiAg_mp-2426_100_bridge_0.save/
     NEW-OLD atomic charge density approx. for the potential

     negative rho (up, down):  7.828E-06 0.000E+00

     total cpu time spent up to now is        7.9 secs

     per-process dynamical memory:   198.6 Mb

     Self-consistent Calculation

     iteration #  1     ecut=    55.00 Ry     beta= 0.30
     Davidson diagonalization with overlap
     ethr =  1.00E-06,  avg # of iterations =  3.9

     negative rho (up, down):  7.810E-06 0.000E+00

     total cpu time spent up to now is        8.2 secs

     total energy              =    -312.38804147 Ry
     estimated scf accuracy    <       0.00039842 Ry

     iteration #  2     ecut=    55.00 Ry     beta= 0.30
     Davidson diagonalization with overlap
     ethr =  8.85E-07,  avg # of iterations =  3.9

     negative rho (up, down):  8.097E-06 0.000E+00

     total cpu time spent up to now is        8.5 secs

     total energy              =    -312.38723275 Ry
     estimated scf accuracy    <       0.03787161 Ry

     iteration #  3     ecut=    55.00 Ry     beta= 0.30
     Davidson diagonalization with overlap
     ethr =  8.85E-07,  avg # of iterations =  3.9

     negative rho (up, down):  8.254E-06 0.000E+00

     total cpu time spent up to now is        8.7 secs

     total energy              =    -312.38820860 Ry
     estimated scf accuracy    <       0.00031315 Ry

     iteration #  4     ecut=    55.00 Ry     beta= 0.30
     Davidson diagonalization with overlap
     ethr =  6.96E-07,  avg # of iterations =  1.3

     negative rho (up, down):  8.002E-06 0.000E+00

     total cpu time spent up to now is        8.9 secs

     total energy              =    -312.38822700 Ry
     estimated scf accuracy    <       0.00000117 Ry

     iteration #  5     ecut=    55.00 Ry     beta= 0.30
     Davidson diagonalization with overlap
     ethr =  2.60E-09,  avg # of iterations =  5.2

     negative rho (up, down):  7.784E-06 0.000E+00

     total cpu time spent up to now is        9.2 secs

     End of self-consistent calculation

          k = 0.0000 0.0000 0.0000 ( 12493 PWs)   bands (ev):

   -46.0275 -45.5446 -44.6347 -44.6321  -4.8788  -4.5431  -4.3634  -4.2704
    -4.1856  -4.1706  -4.0634  -3.4829  -3.3178  -3.2944  -3.1233  -3.0659
    -2.9060  -2.8605  -2.7981  -2.7699  -2.6521  -2.1349  -0.4676   0.6648
     1.7379   3.2026   4.1345   4.1637

          k = 0.0000 0.1250 0.0000 ( 12528 PWs)   bands (ev):

   -46.0268 -45.5439 -44.6341 -44.6313  -4.6666  -4.3569  -4.2020  -4.1362
    -4.0966  -4.0583  -3.9898  -3.5491  -3.3777  -3.2764  -3.2648  -3.0533
    -2.9827  -2.8858  -2.8526  -2.8452  -2.7294  -2.0029  -0.2436   0.8534
     1.9650   3.4120   4.3675   4.3886

          k = 0.0000 0.2500 0.0000 ( 12550 PWs)   bands (ev):

   -46.0251 -45.5421 -44.6321 -44.6293  -4.3882  -4.1684  -4.1061  -3.9597
    -3.8654  -3.6511  -3.5748  -3.3995  -3.3710  -3.3364  -3.2328  -3.0888
    -3.0433  -3.0051  -2.9091  -2.8585  -2.8275  -1.6080   0.3049   1.3882
     2.5409   3.8106   4.5144   4.7134

          k = 0.0000 0.3750 0.0000 ( 12594 PWs)   bands (ev):

   -46.0235 -45.5404 -44.6301 -44.6274  -4.2664  -4.1421  -4.0614  -4.0370
    -3.8712  -3.8405  -3.4982  -3.3798  -3.2751  -3.2119  -3.1858  -3.0802
    -2.9824  -2.8051  -2.7957  -2.0522  -1.6053  -0.6900   0.9399   1.9303
     2.0051   2.3042   3.6536   3.9039

          k = 0.0000-0.5000 0.0000 ( 12618 PWs)   bands (ev):

   -46.0228 -45.5397 -44.6294 -44.6267  -4.2468  -4.2248  -4.0198  -4.0013
    -3.9426  -3.8346  -3.5664  -3.3496  -3.3446  -3.2806  -3.1677  -3.1494
    -2.9693  -2.7956  -2.6000  -0.3744  -0.0225  -0.0158   0.5157   0.6918
     1.0339   1.2795   4.1287   4.4221

          k = 0.1250-0.0000 0.0000 ( 12528 PWs)   bands (ev):

   -46.0269 -45.5439 -44.6341 -44.6313  -4.6739  -4.3722  -4.2460  -4.1797
    -4.1260  -4.0479  -3.8738  -3.5345  -3.3518  -3.3001  -3.2078  -3.1107
    -2.9454  -2.8993  -2.8827  -2.8477  -2.7268  -1.9845  -0.2251   0.8510
     1.9569   3.4152   4.3626   4.3901

          k = 0.1250 0.1250 0.0000 ( 12540 PWs)   bands (ev):

   -46.0261 -45.5432 -44.6332 -44.6305  -4.4285  -4.1427  -4.1026  -4.0942
    -4.0174  -3.9690  -3.8417  -3.5676  -3.4328  -3.3018  -3.2599  -3.1771
    -2.9726  -2.9667  -2.9382  -2.9153  -2.8012  -1.8369   0.0071   1.0485
     2.1965   3.6414   4.5964   4.6243

          k = 0.1250 0.2500 0.0000 ( 12575 PWs)   bands (ev):

   -46.0245 -45.5415 -44.6313 -44.6286  -4.1658  -4.0414  -3.9510  -3.8596
    -3.7665  -3.6496  -3.5728  -3.4394  -3.4039  -3.3918  -3.3179  -3.1662
    -3.1253  -3.0819  -3.0085  -2.9213  -2.6035  -1.3877   0.5833   1.6112
     2.8099   4.1015   4.6841   4.9762

          k = 0.1250 0.3750 0.0000 ( 12609 PWs)   bands (ev):

   -46.0229 -45.5398 -44.6294 -44.6267  -4.1351  -4.0648  -3.9683  -3.8540
    -3.8262  -3.6821  -3.4909  -3.4586  -3.4331  -3.3954  -3.2707  -3.2556
    -3.1091  -2.8904  -2.7510  -1.8837  -1.3763  -0.4092   1.2716   2.2025
     2.2467   2.5918   3.8628   4.1148

          k = 0.1250-0.5000 0.0000 ( 12650 PWs)   bands (ev):

   -46.0223 -45.5391 -44.6287 -44.6259  -4.2401  -4.0182  -3.9299  -3.9297
    -3.8068  -3.6403  -3.5538  -3.5355  -3.4785  -3.4250  -3.3337  -3.2287
    -3.0870  -2.8758  -2.5707  -0.2766   0.1447   0.2551   0.8452   0.9248
     1.4431   1.6472   4.2719   4.6790

          k = 0.1250-0.3750 0.0000 ( 12609 PWs)   bands (ev):

   -46.0229 -45.5398 -44.6294 -44.6267  -4.1351  -4.0648  -3.9683  -3.8540
    -3.8262  -3.6821  -3.4909  -3.4586  -3.4331  -3.3954  -3.2707  -3.2556
    -3.1091  -2.8904  -2.7510  -1.8837  -1.3763  -0.4092   1.2716   2.2025
     2.2467   2.5918   3.8628   4.1148

          k = 0.1250-0.2500 0.0000 ( 12575 PWs)   bands (ev):

   -46.0245 -45.5415 -44.6313 -44.6286  -4.1658  -4.0414  -3.9510  -3.8596
    -3.7665  -3.6496  -3.5728  -3.4394  -3.4039  -3.3918  -3.3179  -3.1662
    -3.1253  -3.0819  -3.0085  -2.9213  -2.6034  -1.3877   0.5833   1.6112
     2.8099   4.1015   4.6841   4.9762

          k = 0.1250-0.1250 0.0000 ( 12540 PWs)   bands (ev):

   -46.0261 -45.5432 -44.6332 -44.6305  -4.4285  -4.1427  -4.1026  -4.0942
    -4.0174  -3.9690  -3.8417  -3.5676  -3.4328  -3.3018  -3.2599  -3.1771
    -2.9726  -2.9667  -2.9382  -2.9153  -2.8012  -1.8369   0.0071   1.0485
     2.1965   3.6414   4.5965   4.6243

          k = 0.2500-0.0000 0.0000 ( 12550 PWs)   bands (ev):

   -46.0252 -45.5421 -44.6321 -44.6293  -4.4021  -4.1954  -4.1015  -4.0924
    -3.8447  -3.6166  -3.5615  -3.3689  -3.3567  -3.2573  -3.2270  -3.1005
    -3.0658  -3.0296  -2.9020  -2.8726  -2.7937  -1.5539   0.3681   1.3899
     2.5205   3.8132   4.5389   4.9534

          k = 0.2500 0.1250 0.0000 ( 12575 PWs)   bands (ev):

   -46.0246 -45.5415 -44.6313 -44.6286  -4.1708  -4.0400  -3.9746  -3.8852
    -3.8377  -3.6197  -3.5661  -3.4464  -3.3844  -3.3633  -3.2475  -3.2078
    -3.1312  -3.0785  -2.9948  -2.9606  -2.5583  -1.3493   0.6286   1.6111
     2.7990   4.1033   4.7232   5.2001

          k = 0.2500 0.2500 0.0000 ( 12610 PWs)   bands (ev):

   -46.0230 -45.5398 -44.6294 -44.6268  -4.0184  -3.8698  -3.7719  -3.7086
    -3.6512  -3.6130  -3.5049  -3.4983  -3.4811  -3.4012  -3.3452  -3.3320
    -3.2034  -3.1207  -3.0434  -2.6498  -1.9673  -0.7543   1.2814   2.2460
     3.5343   4.4671   4.8870   5.4569

          k = 0.2500 0.3750 0.0000 ( 12622 PWs)   bands (ev):

   -46.0213 -45.5381 -44.6275 -44.6249  -4.1185  -3.9432  -3.8531  -3.8173
    -3.7759  -3.7641  -3.6324  -3.5071  -3.4452  -3.3560  -3.2950  -3.2039
    -3.1071  -3.0107  -2.7004  -1.4217  -0.7460   0.3383   2.1019   2.6165
     3.0932   3.3078   4.4174   4.7039

          k = 0.2500-0.5000 0.0000 ( 12660 PWs)   bands (ev):

   -46.0207 -45.5375 -44.6268 -44.6242  -4.2245  -3.9299  -3.8988  -3.8881
    -3.8658  -3.7713  -3.7087  -3.4976  -3.4942  -3.3682  -3.2576  -3.1757
    -3.0706  -2.9196  -2.5208   0.0630   0.6682   0.8473   1.5984   1.6074
     2.4464   2.6135   4.6212   5.1707

          k = 0.2500-0.3750 0.0000 ( 12622 PWs)   bands (ev):

   -46.0213 -45.5381 -44.6275 -44.6249  -4.1185  -3.9432  -3.8531  -3.8173
    -3.7759  -3.7641  -3.6324  -3.5071  -3.4452  -3.3560  -3.2950  -3.2039
    -3.1071  -3.0107  -2.7004  -1.4217  -0.7460   0.3383   2.1019   2.6165
     3.0932   3.3078   4.4174   4.7039

          k = 0.2500-0.2500 0.0000 ( 12610 PWs)   bands (ev):

   -46.0230 -45.5398 -44.6294 -44.6268  -4.0184  -3.8698  -3.7719  -3.7086
    -3.6512  -3.6130  -3.5049  -3.4983  -3.4811  -3.4012  -3.3452  -3.3320
    -3.2034  -3.1207  -3.0434  -2.6497  -1.9673  -0.7543   1.2814   2.2460
     3.5342   4.4671   4.8869   5.4566

          k = 0.2500-0.1250 0.0000 ( 12575 PWs)   bands (ev):

   -46.0246 -45.5415 -44.6313 -44.6286  -4.1708  -4.0400  -3.9746  -3.8852
    -3.8377  -3.6197  -3.5661  -3.4464  -3.3844  -3.3633  -3.2475  -3.2078
    -3.1312  -3.0785  -2.9948  -2.9606  -2.5583  -1.3493   0.6286   1.6111
     2.7990   4.1033   4.7232   5.2001

          k = 0.3750-0.0000 0.0000 ( 12594 PWs)   bands (ev):

   -46.0237 -45.5404 -44.6301 -44.6274  -4.2784  -4.1176  -4.0912  -4.0260
    -3.9885  -3.7841  -3.4617  -3.3463  -3.2749  -3.2191  -3.2040  -3.0672
    -3.0418  -2.8516  -2.7758  -2.0312  -1.5435  -0.6049   1.0187   1.8614
     2.0921   2.8169   3.3388   3.9053

          k = 0.3750 0.1250 0.0000 ( 12609 PWs)   bands (ev):

   -46.0230 -45.5398 -44.6294 -44.6267  -4.1114  -4.0622  -3.9676  -3.8814
    -3.7837  -3.7692  -3.4685  -3.4595  -3.4201  -3.3947  -3.2683  -3.2435
    -3.1724  -2.9333  -2.7371  -1.8633  -1.3179  -0.3292   1.3347   2.1236
     2.3366   3.0762   3.5554   4.1177

          k = 0.3750 0.2500 0.0000 ( 12622 PWs)   bands (ev):

   -46.0214 -45.5381 -44.6275 -44.6249  -4.0953  -3.9349  -3.8490  -3.8184
    -3.7925  -3.7158  -3.6338  -3.5414  -3.4138  -3.3362  -3.3023  -3.2300
    -3.2014  -3.0302  -2.6922  -1.4079  -0.7085   0.3953   2.1193   2.6397
     3.0426   3.7241   4.1535   4.7216

          k = 0.3750 0.3750 0.0000 ( 12670 PWs)   bands (ev):

   -46.0199 -45.5365 -44.6258 -44.6231  -4.1252  -4.1116  -4.0939  -4.0629
    -3.9073  -3.8618  -3.7314  -3.6818  -3.3893  -3.3167  -3.2173  -2.7683
    -2.6903  -2.6693  -2.6154  -0.4563   0.3768   1.5272   2.5072   3.1519
     3.6454   4.3202   4.6100   5.2749

          k = 0.3750-0.5000 0.0000 ( 12656 PWs)   bands (ev):

   -46.0192 -45.5358 -44.6250 -44.6223  -4.2272  -4.2149  -4.2032  -4.0669
    -4.0114  -3.8580  -3.7965  -3.6642  -3.4478  -3.3039  -3.1940  -2.6574
    -2.5811  -2.4805  -2.4020   0.8228   1.3997   1.6852   2.4059   2.7004
     3.6428   3.9128   4.8498   5.4695

          k = 0.3750-0.3750 0.0000 ( 12670 PWs)   bands (ev):

   -46.0199 -45.5365 -44.6258 -44.6231  -4.1252  -4.1116  -4.0939  -4.0629
    -3.9073  -3.8618  -3.7314  -3.6818  -3.3893  -3.3167  -3.2173  -2.7683
    -2.6903  -2.6693  -2.6154  -0.4563   0.3768   1.5272   2.5072   3.1519
     3.6454   4.3202   4.6100   5.2749

          k = 0.3750-0.2500 0.0000 ( 12622 PWs)   bands (ev):

   -46.0214 -45.5381 -44.6275 -44.6249  -4.0953  -3.9349  -3.8490  -3.8184
    -3.7925  -3.7158  -3.6338  -3.5414  -3.4138  -3.3362  -3.3023  -3.2300
    -3.2014  -3.0302  -2.6922  -1.4079  -0.7085   0.3953   2.1193   2.6397
     3.0426   3.7241   4.1535   4.7216

          k = 0.3750-0.1250 0.0000 ( 12609 PWs)   bands (ev):

   -46.0230 -45.5398 -44.6294 -44.6267  -4.1114  -4.0622  -3.9676  -3.8814
    -3.7837  -3.7692  -3.4685  -3.4595  -3.4201  -3.3947  -3.2683  -3.2435
    -3.1724  -2.9333  -2.7371  -1.8633  -1.3179  -0.3292   1.3347   2.1236
     2.3366   3.0762   3.5554   4.1177

          k =-0.5000 0.0000 0.0000 ( 12618 PWs)   bands (ev):

   -46.0230 -45.5397 -44.6294 -44.6267  -4.2367  -4.2212  -4.0513  -3.9906
    -3.9455  -3.8809  -3.5231  -3.3494  -3.3136  -3.2802  -3.1937  -3.1345
    -3.0292  -2.8424  -2.5759  -0.3652  -0.0511   0.0373   0.3835   0.9215
     0.9506   2.1843   3.4019   4.3283

          k =-0.5000 0.1250 0.0000 ( 12650 PWs)   bands (ev):

   -46.0225 -45.5391 -44.6287 -44.6259  -4.2148  -4.0166  -3.9306  -3.8667
    -3.8371  -3.7335  -3.5406  -3.5045  -3.4763  -3.4330  -3.3224  -3.2255
    -3.1562  -2.9179  -2.5542  -0.2681   0.2096   0.2287   0.7160   1.2272
     1.3192   2.4168   3.6306   4.5080

          k =-0.5000 0.2500 0.0000 ( 12660 PWs)   bands (ev):

   -46.0208 -45.5375 -44.6268 -44.6242  -4.1999  -3.9202  -3.8902  -3.8861
    -3.8174  -3.7911  -3.7040  -3.5334  -3.4404  -3.3663  -3.2625  -3.2013
    -3.1773  -2.9511  -2.5150   0.0657   0.7240   0.8486   1.5153   1.9226
     2.2805   3.0993   4.2535   5.0061

          k =-0.5000 0.3750 0.0000 ( 12656 PWs)   bands (ev):

   -46.0192 -45.5358 -44.6250 -44.6223  -4.2269  -4.2112  -4.1832  -4.0899
    -4.0098  -3.8180  -3.7907  -3.7037  -3.3859  -3.3605  -3.1960  -2.6560
    -2.5872  -2.4962  -2.4195   0.8056   1.4312   1.6840   2.4380   2.9255
     3.4506   4.0019   4.9367   5.4085

          k =-0.5000-0.5000 0.0000 ( 12564 PWs)   bands (ev):

   -46.0182 -45.5348 -44.6241 -44.6211  -4.3406  -4.3305  -4.2020  -4.1784
    -4.1228  -3.8452  -3.7769  -3.7306  -3.4275  -3.3625  -3.1665  -2.5503
    -2.3069  -2.2863  -2.2124   1.6255   1.6676   2.7820   2.9052   3.5359
     3.9521   4.4505   4.5669   4.6405

     the Fermi energy is     1.1435 ev

!    total energy              =    -312.38822740 Ry
     estimated scf accuracy    <       0.00000029 Ry
     smearing contrib. (-TS)   =       0.00067600 Ry
     internal energy E=F+TS    =    -312.38890340 Ry

     The total energy is F=E-TS. E is the sum of the following terms:
     one-electron contribution =   -2698.79590530 Ry
     hartree contribution      =    1367.74095861 Ry
     xc contribution           =     -81.44242762 Ry
     ewald contribution        =    1100.22102718 Ry
     DFT-D3 Dispersion         =      -0.11255626 Ry

     convergence has been achieved in   5 iterations

     negative rho (up, down):  7.784E-06 0.000E+00

     Forces acting on atoms (cartesian axes, Ry/au):

     atom    1 type  1   force =     0.00000031   -0.00000217   -0.00871541
     atom    2 type  1   force =     0.00000003    0.00000125    0.00042970
     atom    3 type  1   force =     0.00000009    0.00000060    0.00207296
     atom    4 type  2   force =    -0.00000023    0.00000044   -0.00087295
     atom    5 type  2   force =    -0.00000004    0.00000016    0.00050817
     atom    6 type  2   force =     0.00000006   -0.00000015   -0.00018164
     atom    7 type  2   force =    -0.00000021   -0.00000013    0.00675917
     The non-local contrib.  to forces
     atom    1 type  1   force =    -0.00000124   -0.00000404    0.03607407
     atom    2 type  1   force =    -0.00000100    0.00000127   -0.00452189
     atom    3 type  1   force =     0.00000055    0.00000062    0.02394779
     atom    4 type  2   force =    -0.00000492   -0.00000423    0.00021755
     atom    5 type  2   force =    -0.00000435   -0.00000441    0.00017405
     atom    6 type  2   force =    -0.00000784   -0.00000857   -0.05715326
     atom    7 type  2   force =     0.00001144   -0.00000822    0.05064870
     The ionic contribution  to forces
     atom    1 type  1   force =     0.00000303    0.00000118   70.50897871
     atom    2 type  1   force =    -0.00000129    0.00000014    0.26209756
     atom    3 type  1   force =    -0.00000376   -0.00000036  -71.05142860
     atom    4 type  2   force =    -0.00000307   -0.00000171    9.87759069
     atom    5 type  2   force =     0.00000269    0.00000030   -9.59314615
     atom    6 type  2   force =     0.00000207    0.00000040  -27.50278043
     atom    7 type  2   force =     0.00000033    0.00000005   27.49868822
     The local contribution  to forces
     atom    1 type  1   force =    -0.00000431   -0.00000258  -70.55231815
     atom    2 type  1   force =     0.00000034   -0.00000111   -0.25540394
     atom    3 type  1   force =     0.00000368   -0.00000044   71.02573652
     atom    4 type  2   force =     0.00000815    0.00000636   -9.87698685
     atom    5 type  2   force =     0.00000200    0.00000410    9.59248954
     atom    6 type  2   force =     0.00000597    0.00000830   27.55740330
     atom    7 type  2   force =    -0.00001173    0.00000846  -27.54070635
     The core correction contribution to forces
     atom    1 type  1   force =    -0.00000016   -0.00000006    0.00026219
     atom    2 type  1   force =    -0.00000004   -0.00000006   -0.00014134
     atom    3 type  1   force =     0.00000003   -0.00000004   -0.00010160
     atom    4 type  2   force =     0.00000000    0.00000000    0.00000000
     atom    5 type  2   force =     0.00000000    0.00000000    0.00000000
     atom    6 type  2   force =     0.00000000    0.00000000    0.00000000
     atom    7 type  2   force =     0.00000000    0.00000000    0.00000000
     The Hubbard contrib.    to forces
     atom    1 type  1   force =     0.00000000    0.00000000    0.00000000
     atom    2 type  1   force =     0.00000000    0.00000000    0.00000000
     atom    3 type  1   force =     0.00000000    0.00000000    0.00000000
     atom    4 type  2   force =     0.00000000    0.00000000    0.00000000
     atom    5 type  2   force =     0.00000000    0.00000000    0.00000000
     atom    6 type  2   force =     0.00000000    0.00000000    0.00000000
     atom    7 type  2   force =     0.00000000    0.00000000    0.00000000
     The SCF correction term to forces
     atom    1 type  1   force =     0.00000302    0.00000324    0.00203521
     atom    2 type  1   force =     0.00000203    0.00000091   -0.00138580
     atom    3 type  1   force =    -0.00000041    0.00000072   -0.00014083
     atom    4 type  2   force =    -0.00000038   -0.00000007   -0.00022138
     atom    5 type  2   force =    -0.00000036    0.00000008   -0.00023913
     atom    6 type  2   force =    -0.00000011   -0.00000036    0.00017331
     atom    7 type  2   force =    -0.00000022   -0.00000051    0.00017025

     DFT-D3 dispersion contribution to forces:
     atom    1 type  1   force =    -0.00000001   -0.00000000   -0.00374573
     atom    2 type  1   force =     0.00000001    0.00000000   -0.00021318
     atom    3 type  1   force =     0.00000001   -0.00000000    0.00406138
     atom    4 type  2   force =     0.00000000    0.00000000   -0.00147126
     atom    5 type  2   force =    -0.00000000   -0.00000000    0.00123158
     atom    6 type  2   force =    -0.00000000   -0.00000000    0.00217716
     atom    7 type  2   force =    -0.00000000   -0.00000000   -0.00203994

     Total force =     0.011277     Total SCF correction =     0.002500
     SCF correction compared to forces is large: reduce conv_thr to get better values


     Computing stress (Cartesian axis) and pressure


     negative rho (up, down):  7.784E-06 0.000E+00
          total   stress  (Ry/bohr**3)                   (kbar)     P=      -11.36
  -0.00011608  -0.00000000  -0.00000000          -17.08       -0.00       -0.00
  -0.00000000  -0.00006478   0.00000000           -0.00       -9.53        0.00
  -0.00000000   0.00000000  -0.00005077           -0.00        0.00       -7.47

     Energy error            =      1.6E-04 Ry
     Gradient error          =      8.7E-03 Ry/Bohr

     number of scf cycles    =   2
     number of bfgs steps    =   1

     energy             old  =    -312.3880684261 Ry
     energy             new  =    -312.3882273956 Ry

     CASE: energy            _new < energy            _old


     WARNING: bfgs curvature condition failed, Theta= 0.925
     new trust radius        =       0.0113380394 bohr
     new conv_thr            =       0.0000000159 Ry


ATOMIC_POSITIONS (angstrom)
Ag            0.7806785411        0.7806830239       17.7825394738
Ag            0.7806850181        0.7806864554       14.6847768127
Ag            0.7806864974        0.7806852482       11.5640709253
Li            2.3420527374        2.3420560721       16.2651733204
Li            2.3420546861        2.3420554147       13.1233849039
Li            2.3420548252        2.3420545923        9.9997343559
Li            0.7806787334        2.3420543759       19.8025996549



     Writing config-only to output data dir ./LiAg_mp-2426_100_bridge_0/LiAg_mp-2426_100_bridge_0.save/
     NEW-OLD atomic charge density approx. for the potential

     negative rho (up, down):  7.831E-06 0.000E+00

     total cpu time spent up to now is       10.0 secs

     per-process dynamical memory:   203.1 Mb

     Self-consistent Calculation

     iteration #  1     ecut=    55.00 Ry     beta= 0.30
     Davidson diagonalization with overlap
     ethr =  1.00E-06,  avg # of iterations =  4.0

     Threshold (ethr) on eigenvalues was too large:
     Diagonalizing with lowered threshold

     Davidson diagonalization with overlap
     ethr =  5.02E-08,  avg # of iterations =  2.0

     negative rho (up, down):  7.795E-06 0.000E+00

     total cpu time spent up to now is       10.6 secs

     total energy              =    -312.38837576 Ry
     estimated scf accuracy    <       0.00002366 Ry

     iteration #  2     ecut=    55.00 Ry     beta= 0.30
     Davidson diagonalization with overlap
     ethr =  5.26E-08,  avg # of iterations =  2.5

     negative rho (up, down):  7.982E-06 0.000E+00

     total cpu time spent up to now is       10.8 secs

     total energy              =    -312.38833979 Ry
     estimated scf accuracy    <       0.00169251 Ry

     iteration #  3     ecut=    55.00 Ry     beta= 0.30
     Davidson diagonalization with overlap
     ethr =  5.26E-08,  avg # of iterations =  1.9

     negative rho (up, down):  8.069E-06 0.000E+00

     total cpu time spent up to now is       11.0 secs

     total energy              =    -312.38838388 Ry
     estimated scf accuracy    <       0.00000903 Ry

     iteration #  4     ecut=    55.00 Ry     beta= 0.30
     Davidson diagonalization with overlap
     ethr =  2.01E-08,  avg # of iterations =  2.0

     negative rho (up, down):  8.056E-06 0.000E+00

     total cpu time spent up to now is       11.2 secs

     total energy              =    -312.38838450 Ry
     estimated scf accuracy    <       0.00000757 Ry

     iteration #  5     ecut=    55.00 Ry     beta= 0.30
     Davidson diagonalization with overlap
     ethr =  1.68E-08,  avg # of iterations =  1.1

     negative rho (up, down):  7.885E-06 0.000E+00

     total cpu time spent up to now is       11.3 secs

     total energy              =    -312.38838511 Ry
     estimated scf accuracy    <       0.00000061 Ry

     iteration #  6     ecut=    55.00 Ry     beta= 0.30
     Davidson diagonalization with overlap
     ethr =  1.36E-09,  avg # of iterations =  2.5

     negative rho (up, down):  7.773E-06 0.000E+00

     total cpu time spent up to now is       11.5 secs

     total energy              =    -312.38838519 Ry
     estimated scf accuracy    <       0.00000005 Ry

     iteration #  7     ecut=    55.00 Ry     beta= 0.30
     Davidson diagonalization with overlap
     ethr =  1.04E-10,  avg # of iterations =  4.5

     negative rho (up, down):  7.774E-06 0.000E+00

     total cpu time spent up to now is       11.7 secs

     End of self-consistent calculation

          k = 0.0000 0.0000 0.0000 ( 12493 PWs)   bands (ev):

   -46.0352 -45.5468 -44.6347 -44.6294  -4.8808  -4.5435  -4.3605  -4.2715
    -4.1868  -4.1718  -4.0613  -3.4823  -3.3186  -3.2962  -3.1207  -3.0656
    -2.9035  -2.8575  -2.7992  -2.7706  -2.6496  -2.1328  -0.4695   0.6626
     1.7334   3.2034   4.1354   4.1640

          k = 0.0000 0.1250 0.0000 ( 12528 PWs)   bands (ev):

   -46.0346 -45.5461 -44.6340 -44.6286  -4.6688  -4.3576  -4.2035  -4.1377
    -4.0946  -4.0583  -3.9871  -3.5495  -3.3771  -3.2781  -3.2628  -3.0531
    -2.9802  -2.8867  -2.8516  -2.8441  -2.7269  -2.0000  -0.2454   0.8513
     1.9606   3.4125   4.3681   4.3892

          k = 0.0000 0.2500 0.0000 ( 12550 PWs)   bands (ev):

   -46.0328 -45.5443 -44.6320 -44.6266  -4.3903  -4.1692  -4.1089  -3.9581
    -3.8667  -3.6506  -3.5738  -3.3968  -3.3700  -3.3348  -3.2345  -3.0899
    -3.0438  -3.0052  -2.9066  -2.8563  -2.8246  -1.6042   0.3032   1.3862
     2.5368   3.8097   4.5139   4.7144

          k = 0.0000 0.3750 0.0000 ( 12594 PWs)   bands (ev):

   -46.0312 -45.5426 -44.6300 -44.6247  -4.2684  -4.1435  -4.0624  -4.0394
    -3.8695  -3.8388  -3.4958  -3.3779  -3.2762  -3.2128  -3.1873  -3.0778
    -2.9822  -2.8022  -2.7932  -2.0529  -1.6036  -0.6865   0.9389   1.9297
     2.0041   2.3044   3.6528   3.9025

          k = 0.0000-0.5000 0.0000 ( 12618 PWs)   bands (ev):

   -46.0306 -45.5419 -44.6293 -44.6240  -4.2483  -4.2269  -4.0208  -4.0039
    -3.9405  -3.8331  -3.5636  -3.3508  -3.3428  -3.2813  -3.1693  -3.1471
    -2.9691  -2.7927  -2.5967  -0.3753  -0.0216  -0.0168   0.5171   0.6945
     1.0369   1.2793   4.1247   4.4204

          k = 0.1250-0.0000 0.0000 ( 12528 PWs)   bands (ev):

   -46.0346 -45.5461 -44.6340 -44.6286  -4.6760  -4.3721  -4.2431  -4.1814
    -4.1275  -4.0487  -3.8720  -3.5355  -3.3519  -3.3009  -3.2070  -3.1082
    -2.9427  -2.8974  -2.8833  -2.8484  -2.7244  -1.9819  -0.2273   0.8487
     1.9524   3.4155   4.3632   4.3906

          k = 0.1250 0.1250 0.0000 ( 12540 PWs)   bands (ev):

   -46.0339 -45.5454 -44.6331 -44.6278  -4.4310  -4.1434  -4.1046  -4.0952
    -4.0153  -3.9676  -3.8400  -3.5684  -3.4340  -3.3013  -3.2577  -3.1761
    -2.9728  -2.9650  -2.9378  -2.9137  -2.7990  -1.8338   0.0050   1.0461
     2.1922   3.6414   4.5967   4.6251

          k = 0.1250 0.2500 0.0000 ( 12575 PWs)   bands (ev):

   -46.0322 -45.5436 -44.6312 -44.6259  -4.1686  -4.0432  -3.9519  -3.8609
    -3.7648  -3.6494  -3.5723  -3.4394  -3.4023  -3.3907  -3.3164  -3.1659
    -3.1241  -3.0828  -3.0068  -2.9184  -2.6022  -1.3838   0.5813   1.6090
     2.8060   4.1005   4.6835   4.9770

          k = 0.1250 0.3750 0.0000 ( 12609 PWs)   bands (ev):

   -46.0306 -45.5419 -44.6293 -44.6240  -4.1365  -4.0675  -3.9699  -3.8549
    -3.8246  -3.6804  -3.4892  -3.4596  -3.4329  -3.3960  -3.2699  -3.2533
    -3.1082  -2.8877  -2.7485  -1.8845  -1.3749  -0.4057   1.2703   2.2013
     2.2460   2.5920   3.8621   4.1134

          k = 0.1250-0.5000 0.0000 ( 12650 PWs)   bands (ev):

   -46.0300 -45.5413 -44.6286 -44.6233  -4.2416  -4.0212  -3.9317  -3.9277
    -3.8077  -3.6386  -3.5520  -3.5358  -3.4792  -3.4257  -3.3311  -3.2283
    -3.0859  -2.8731  -2.5676  -0.2776   0.1458   0.2540   0.8465   0.9277
     1.4460   1.6467   4.2677   4.6755

          k = 0.1250-0.3750 0.0000 ( 12609 PWs)   bands (ev):

   -46.0306 -45.5419 -44.6293 -44.6240  -4.1365  -4.0675  -3.9699  -3.8549
    -3.8246  -3.6804  -3.4892  -3.4596  -3.4329  -3.3960  -3.2699  -3.2533
    -3.1082  -2.8877  -2.7485  -1.8845  -1.3749  -0.4057   1.2703   2.2013
     2.2460   2.5920   3.8621   4.1134

          k = 0.1250-0.2500 0.0000 ( 12575 PWs)   bands (ev):

   -46.0322 -45.5436 -44.6312 -44.6259  -4.1686  -4.0432  -3.9519  -3.8609
    -3.7648  -3.6494  -3.5723  -3.4394  -3.4023  -3.3907  -3.3164  -3.1659
    -3.1241  -3.0828  -3.0068  -2.9184  -2.6022  -1.3838   0.5813   1.6090
     2.8060   4.1005   4.6835   4.9770

          k = 0.1250-0.1250 0.0000 ( 12540 PWs)   bands (ev):

   -46.0339 -45.5454 -44.6331 -44.6278  -4.4310  -4.1434  -4.1046  -4.0952
    -4.0153  -3.9676  -3.8400  -3.5684  -3.4340  -3.3013  -3.2577  -3.1761
    -2.9728  -2.9650  -2.9378  -2.9137  -2.7990  -1.8338   0.0050   1.0461
     2.1922   3.6414   4.5967   4.6251

          k = 0.2500-0.0000 0.0000 ( 12550 PWs)   bands (ev):

   -46.0330 -45.5443 -44.6320 -44.6266  -4.4039  -4.1945  -4.1035  -4.0904
    -3.8467  -3.6174  -3.5615  -3.3668  -3.3575  -3.2579  -3.2235  -3.1003
    -3.0649  -3.0298  -2.8996  -2.8703  -2.7928  -1.5509   0.3655   1.3870
     2.5161   3.8119   4.5383   4.9529

          k = 0.2500 0.1250 0.0000 ( 12575 PWs)   bands (ev):

   -46.0323 -45.5436 -44.6312 -44.6259  -4.1736  -4.0418  -3.9738  -3.8824
    -3.8396  -3.6207  -3.5662  -3.4471  -3.3839  -3.3624  -3.2443  -3.2058
    -3.1303  -3.0792  -2.9932  -2.9580  -2.5578  -1.3459   0.6260   1.6082
     2.7949   4.1020   4.7225   5.1996

          k = 0.2500 0.2500 0.0000 ( 12610 PWs)   bands (ev):

   -46.0307 -45.5420 -44.6293 -44.6241  -4.0216  -3.8714  -3.7740  -3.7098
    -3.6519  -3.6142  -3.5038  -3.4952  -3.4815  -3.3993  -3.3420  -3.3312
    -3.2013  -3.1177  -3.0417  -2.6506  -1.9668  -0.7505   1.2789   2.2433
     3.5308   4.4659   4.8860   5.4565

          k = 0.2500 0.3750 0.0000 ( 12622 PWs)   bands (ev):

   -46.0290 -45.5403 -44.6274 -44.6222  -4.1202  -3.9457  -3.8542  -3.8182
    -3.7780  -3.7632  -3.6296  -3.5081  -3.4429  -3.3545  -3.2948  -3.2029
    -3.1039  -3.0089  -2.6978  -1.4229  -0.7451   0.3420   2.1000   2.6153
     3.0920   3.3079   4.4169   4.7027

          k = 0.2500-0.5000 0.0000 ( 12660 PWs)   bands (ev):

   -46.0285 -45.5397 -44.6267 -44.6215  -4.2262  -3.9303  -3.8990  -3.8913
    -3.8653  -3.7736  -3.7059  -3.4987  -3.4911  -3.3670  -3.2575  -3.1746
    -3.0674  -2.9183  -2.5179   0.0619   0.6694   0.8459   1.6017   1.6082
     2.4493   2.6122   4.6168   5.1686

          k = 0.2500-0.3750 0.0000 ( 12622 PWs)   bands (ev):

   -46.0290 -45.5403 -44.6274 -44.6222  -4.1202  -3.9457  -3.8542  -3.8182
    -3.7780  -3.7632  -3.6296  -3.5081  -3.4429  -3.3545  -3.2948  -3.2029
    -3.1039  -3.0089  -2.6978  -1.4229  -0.7451   0.3420   2.1000   2.6153
     3.0920   3.3079   4.4169   4.7027

          k = 0.2500-0.2500 0.0000 ( 12610 PWs)   bands (ev):

   -46.0307 -45.5420 -44.6293 -44.6241  -4.0216  -3.8714  -3.7740  -3.7098
    -3.6519  -3.6142  -3.5038  -3.4952  -3.4815  -3.3993  -3.3420  -3.3312
    -3.2013  -3.1177  -3.0417  -2.6506  -1.9668  -0.7505   1.2789   2.2433
     3.5308   4.4659   4.8860   5.4565

          k = 0.2500-0.1250 0.0000 ( 12575 PWs)   bands (ev):

   -46.0323 -45.5436 -44.6312 -44.6259  -4.1736  -4.0418  -3.9738  -3.8824
    -3.8396  -3.6207  -3.5662  -3.4471  -3.3839  -3.3624  -3.2443  -3.2058
    -3.1303  -3.0792  -2.9932  -2.9580  -2.5578  -1.3459   0.6260   1.6082
     2.7949   4.1020   4.7225   5.1996

          k = 0.3750-0.0000 0.0000 ( 12594 PWs)   bands (ev):

   -46.0314 -45.5426 -44.6300 -44.6247  -4.2802  -4.1196  -4.0902  -4.0289
    -3.9860  -3.7835  -3.4588  -3.3452  -3.2761  -3.2197  -3.2046  -3.0652
    -3.0391  -2.8495  -2.7736  -2.0320  -1.5427  -0.6022   1.0170   1.8602
     2.0911   2.8104   3.3389   3.9039

          k = 0.3750 0.1250 0.0000 ( 12609 PWs)   bands (ev):

   -46.0307 -45.5419 -44.6293 -44.6240  -4.1135  -4.0651  -3.9693  -3.8806
    -3.7814  -3.7685  -3.4679  -3.4604  -3.4188  -3.3949  -3.2674  -3.2415
    -3.1695  -2.9310  -2.7349  -1.8643  -1.3175  -0.3264   1.3329   2.1225
     2.3352   3.0706   3.5557   4.1162

          k = 0.3750 0.2500 0.0000 ( 12622 PWs)   bands (ev):

   -46.0291 -45.5403 -44.6274 -44.6222  -4.0975  -3.9378  -3.8502  -3.8195
    -3.7939  -3.7158  -3.6309  -3.5411  -3.4115  -3.3341  -3.3017  -3.2264
    -3.2002  -3.0283  -2.6898  -1.4092  -0.7083   0.3985   2.1171   2.6385
     3.0410   3.7208   4.1539   4.7200

          k = 0.3750 0.3750 0.0000 ( 12670 PWs)   bands (ev):

   -46.0276 -45.5387 -44.6257 -44.6204  -4.1263  -4.1133  -4.0951  -4.0652
    -3.9044  -3.8637  -3.7310  -3.6823  -3.3863  -3.3135  -3.2151  -2.7690
    -2.6908  -2.6662  -2.6124  -0.4579   0.3772   1.5307   2.5060   3.1501
     3.6446   4.3173   4.6108   5.2763

          k = 0.3750-0.5000 0.0000 ( 12656 PWs)   bands (ev):

   -46.0269 -45.5380 -44.6249 -44.6196  -4.2283  -4.2164  -4.2046  -4.0693
    -4.0085  -3.8565  -3.7994  -3.6649  -3.4446  -3.3007  -3.1918  -2.6552
    -2.5817  -2.4801  -2.3992   0.8214   1.3981   1.6861   2.4061   2.7040
     3.6455   3.9111   4.8459   5.4682

          k = 0.3750-0.3750 0.0000 ( 12670 PWs)   bands (ev):

   -46.0276 -45.5387 -44.6257 -44.6204  -4.1263  -4.1133  -4.0951  -4.0652
    -3.9044  -3.8637  -3.7310  -3.6823  -3.3863  -3.3135  -3.2151  -2.7690
    -2.6908  -2.6662  -2.6124  -0.4579   0.3772   1.5307   2.5060   3.1501
     3.6446   4.3173   4.6108   5.2763

          k = 0.3750-0.2500 0.0000 ( 12622 PWs)   bands (ev):

   -46.0291 -45.5403 -44.6274 -44.6222  -4.0975  -3.9378  -3.8502  -3.8195
    -3.7939  -3.7158  -3.6309  -3.5411  -3.4115  -3.3341  -3.3017  -3.2264
    -3.2002  -3.0283  -2.6898  -1.4092  -0.7083   0.3985   2.1171   2.6385
     3.0410   3.7208   4.1539   4.7200

          k = 0.3750-0.1250 0.0000 ( 12609 PWs)   bands (ev):

   -46.0307 -45.5419 -44.6293 -44.6240  -4.1135  -4.0651  -3.9693  -3.8806
    -3.7814  -3.7685  -3.4679  -3.4604  -3.4188  -3.3949  -3.2674  -3.2415
    -3.1695  -2.9310  -2.7349  -1.8643  -1.3175  -0.3264   1.3329   2.1225
     2.3352   3.0706   3.5557   4.1162

          k =-0.5000 0.0000 0.0000 ( 12618 PWs)   bands (ev):

   -46.0308 -45.5419 -44.6293 -44.6239  -4.2384  -4.2232  -4.0503  -3.9936
    -3.9431  -3.8801  -3.5196  -3.3506  -3.3130  -3.2810  -3.1941  -3.1325
    -3.0265  -2.8403  -2.5730  -0.3665  -0.0508   0.0366   0.3868   0.9232
     0.9503   2.1826   3.3868   4.3250

          k =-0.5000 0.1250 0.0000 ( 12650 PWs)   bands (ev):

   -46.0302 -45.5413 -44.6286 -44.6232  -4.2169  -4.0197  -3.9324  -3.8661
    -3.8363  -3.7311  -3.5416  -3.5018  -3.4764  -3.4335  -3.3200  -3.2251
    -3.1532  -2.9156  -2.5512  -0.2693   0.2089   0.2285   0.7190   1.2271
     1.3209   2.4160   3.6162   4.5049

          k =-0.5000 0.2500 0.0000 ( 12660 PWs)   bands (ev):

   -46.0286 -45.5397 -44.6267 -44.6215  -4.2022  -3.9213  -3.8910  -3.8893
    -3.8172  -3.7929  -3.7013  -3.5332  -3.4369  -3.3648  -3.2622  -3.1973
    -3.1763  -2.9493  -2.5122   0.0643   0.7233   0.8476   1.5173   1.9237
     2.2820   3.0999   4.2412   5.0035

          k =-0.5000 0.3750 0.0000 ( 12656 PWs)   bands (ev):

   -46.0269 -45.5380 -44.6249 -44.6196  -4.2280  -4.2122  -4.1855  -4.0919
    -4.0068  -3.8194  -3.7908  -3.7043  -3.3825  -3.3574  -3.1939  -2.6537
    -2.5877  -2.4952  -2.4169   0.8041   1.4297   1.6838   2.4385   2.9285
     3.4520   4.0028   4.9292   5.4075

          k =-0.5000-0.5000 0.0000 ( 12564 PWs)   bands (ev):

   -46.0260 -45.5370 -44.6239 -44.6185  -4.3416  -4.3314  -4.2041  -4.1808
    -4.1198  -3.8438  -3.7772  -3.7338  -3.4242  -3.3592  -3.1643  -2.5468
    -2.3079  -2.2871  -2.2091   1.6239   1.6660   2.7819   2.9046   3.5403
     3.9509   4.4544   4.5709   4.6389

     the Fermi energy is     1.1426 ev

!    total energy              =    -312.38838521 Ry
     estimated scf accuracy    <          9.8E-09 Ry
     smearing contrib. (-TS)   =       0.00068184 Ry
     internal energy E=F+TS    =    -312.38906705 Ry

     The total energy is F=E-TS. E is the sum of the following terms:
     one-electron contribution =   -2700.31199761 Ry
     hartree contribution      =    1368.49532181 Ry
     xc contribution           =     -81.44187246 Ry
     ewald contribution        =    1100.98207489 Ry
     DFT-D3 Dispersion         =      -0.11259367 Ry

     convergence has been achieved in   7 iterations

     negative rho (up, down):  7.774E-06 0.000E+00

     Forces acting on atoms (cartesian axes, Ry/au):

     atom    1 type  1   force =     0.00000054   -0.00000015   -0.00782622
     atom    2 type  1   force =    -0.00000054   -0.00000003    0.00052531
     atom    3 type  1   force =     0.00000011    0.00000012    0.00197474
     atom    4 type  2   force =    -0.00000015   -0.00000019   -0.00101136
     atom    5 type  2   force =     0.00000019    0.00000012    0.00057779
     atom    6 type  2   force =     0.00000010    0.00000009   -0.00010179
     atom    7 type  2   force =    -0.00000024    0.00000005    0.00586154
     The non-local contrib.  to forces
     atom    1 type  1   force =     0.00000026   -0.00000020    0.03557499
     atom    2 type  1   force =     0.00000006    0.00000013   -0.00448117
     atom    3 type  1   force =     0.00000028    0.00000031    0.02397442
     atom    4 type  2   force =    -0.00000495   -0.00000438    0.00007318
     atom    5 type  2   force =    -0.00000452   -0.00000458    0.00025425
     atom    6 type  2   force =    -0.00000790   -0.00000856   -0.05716491
     atom    7 type  2   force =     0.00001131   -0.00000845    0.05009516
     The ionic contribution  to forces
     atom    1 type  1   force =     0.00000287    0.00000378   70.56241014
     atom    2 type  1   force =    -0.00000169   -0.00000045    0.24648677
     atom    3 type  1   force =    -0.00000430   -0.00000147  -71.07363630
     atom    4 type  2   force =    -0.00000253   -0.00000320    9.88944121
     atom    5 type  2   force =     0.00000317    0.00000152   -9.59967899
     atom    6 type  2   force =     0.00000232    0.00000102  -27.50889129
     atom    7 type  2   force =     0.00000015   -0.00000120   27.48386845
     The local contribution  to forces
     atom    1 type  1   force =    -0.00000204   -0.00000276  -70.60207849
     atom    2 type  1   force =     0.00000204    0.00000018   -0.24095654
     atom    3 type  1   force =     0.00000357    0.00000091   71.04752852
     atom    4 type  2   force =     0.00000731    0.00000725   -9.88903391
     atom    5 type  2   force =     0.00000161    0.00000322    9.59877919
     atom    6 type  2   force =     0.00000575    0.00000761   27.56375586
     atom    7 type  2   force =    -0.00001150    0.00000965  -27.52609819
     The core correction contribution to forces
     atom    1 type  1   force =    -0.00000003   -0.00000001    0.00008888
     atom    2 type  1   force =     0.00000006    0.00000001   -0.00012222
     atom    3 type  1   force =    -0.00000000   -0.00000001   -0.00008079
     atom    4 type  2   force =     0.00000000    0.00000000    0.00000000
     atom    5 type  2   force =     0.00000000    0.00000000    0.00000000
     atom    6 type  2   force =     0.00000000    0.00000000    0.00000000
     atom    7 type  2   force =     0.00000000    0.00000000    0.00000000
     The Hubbard contrib.    to forces
     atom    1 type  1   force =     0.00000000    0.00000000    0.00000000
     atom    2 type  1   force =     0.00000000    0.00000000    0.00000000
     atom    3 type  1   force =     0.00000000    0.00000000    0.00000000
     atom    4 type  2   force =     0.00000000    0.00000000    0.00000000
     atom    5 type  2   force =     0.00000000    0.00000000    0.00000000
     atom    6 type  2   force =     0.00000000    0.00000000    0.00000000
     atom    7 type  2   force =     0.00000000    0.00000000    0.00000000
     The SCF correction term to forces
     atom    1 type  1   force =    -0.00000048   -0.00000100   -0.00005761
     atom    2 type  1   force =    -0.00000099    0.00000005   -0.00021462
     atom    3 type  1   force =     0.00000059    0.00000034    0.00011032
     atom    4 type  2   force =     0.00000005    0.00000009   -0.00003597
     atom    5 type  2   force =    -0.00000003   -0.00000008   -0.00001742
     atom    6 type  2   force =    -0.00000004   -0.00000002    0.00001647
     atom    7 type  2   force =    -0.00000017    0.00000000    0.00004924

     DFT-D3 dispersion contribution to forces:
     atom    1 type  1   force =    -0.00000001   -0.00000001   -0.00377005
     atom    2 type  1   force =     0.00000001    0.00000001   -0.00019282
     atom    3 type  1   force =     0.00000001   -0.00000000    0.00407266
     atom    4 type  2   force =     0.00000000    0.00000000   -0.00146178
     atom    5 type  2   force =    -0.00000000   -0.00000000    0.00123485
     atom    6 type  2   force =    -0.00000000   -0.00000000    0.00217616
     atom    7 type  2   force =     0.00000000   -0.00000000   -0.00205903

     Total force =     0.010057     Total SCF correction =     0.000257


     Computing stress (Cartesian axis) and pressure


     negative rho (up, down):  7.774E-06 0.000E+00
          total   stress  (Ry/bohr**3)                   (kbar)     P=      -11.56
  -0.00011632  -0.00000000   0.00000000          -17.11       -0.00        0.00
  -0.00000000  -0.00006653  -0.00000000           -0.00       -9.79       -0.00
   0.00000000  -0.00000000  -0.00005287            0.00       -0.00       -7.78

     Energy error            =      1.6E-04 Ry
     Gradient error          =      7.8E-03 Ry/Bohr

     number of scf cycles    =   3
     number of bfgs steps    =   2

     energy             old  =    -312.3882273956 Ry
     energy             new  =    -312.3883852092 Ry

     CASE: energy            _new < energy            _old

     new trust radius        =       0.0170070591 bohr
     new conv_thr            =       0.0000000158 Ry


ATOMIC_POSITIONS (angstrom)
Ag            0.7806789932        0.7806826033       17.7735397257
Ag            0.7806845363        0.7806866931       14.6853585135
Ag            0.7806868137        0.7806854048       11.5663073304
Li            2.3420525758        2.3420559659       16.2641104283
Li            2.3420547623        2.3420555496       13.1240127158
Li            2.3420548512        2.3420545615        9.9995964931
Li            0.7806785063        2.3420544043       19.8093542400



     Writing config-only to output data dir ./LiAg_mp-2426_100_bridge_0/LiAg_mp-2426_100_bridge_0.save/
     NEW-OLD atomic charge density approx. for the potential

     negative rho (up, down):  7.881E-06 0.000E+00

     total cpu time spent up to now is       12.5 secs

     per-process dynamical memory:   203.1 Mb

     Self-consistent Calculation

     iteration #  1     ecut=    55.00 Ry     beta= 0.30
     Davidson diagonalization with overlap
     ethr =  1.00E-06,  avg # of iterations =  4.1

     Threshold (ethr) on eigenvalues was too large:
     Diagonalizing with lowered threshold

     Davidson diagonalization with overlap
     ethr =  7.22E-08,  avg # of iterations =  2.0

     negative rho (up, down):  7.804E-06 0.000E+00

     total cpu time spent up to now is       13.0 secs

     total energy              =    -312.38857021 Ry
     estimated scf accuracy    <       0.00003610 Ry

     iteration #  2     ecut=    55.00 Ry     beta= 0.30
     Davidson diagonalization with overlap
     ethr =  8.02E-08,  avg # of iterations =  2.1

     negative rho (up, down):  8.176E-06 0.000E+00

     total cpu time spent up to now is       13.2 secs

     total energy              =    -312.38854216 Ry
     estimated scf accuracy    <       0.00102995 Ry

     iteration #  3     ecut=    55.00 Ry     beta= 0.30
     Davidson diagonalization with overlap
     ethr =  8.02E-08,  avg # of iterations =  1.5

     negative rho (up, down):  8.629E-06 0.000E+00

     total cpu time spent up to now is       13.3 secs

     total energy              =    -312.38857294 Ry
     estimated scf accuracy    <       0.00016280 Ry

     iteration #  4     ecut=    55.00 Ry     beta= 0.30
     Davidson diagonalization with overlap
     ethr =  8.02E-08,  avg # of iterations =  1.3

     negative rho (up, down):  8.117E-06 0.000E+00

     total cpu time spent up to now is       13.5 secs

     total energy              =    -312.38858062 Ry
     estimated scf accuracy    <       0.00001407 Ry

     iteration #  5     ecut=    55.00 Ry     beta= 0.30
     Davidson diagonalization with overlap
     ethr =  3.13E-08,  avg # of iterations =  1.0

     negative rho (up, down):  7.837E-06 0.000E+00

     total cpu time spent up to now is       13.7 secs

     total energy              =    -312.38858140 Ry
     estimated scf accuracy    <       0.00000024 Ry

     iteration #  6     ecut=    55.00 Ry     beta= 0.30
     Davidson diagonalization with overlap
     ethr =  5.41E-10,  avg # of iterations =  4.3

     negative rho (up, down):  7.756E-06 0.000E+00

     total cpu time spent up to now is       13.9 secs

     total energy              =    -312.38858147 Ry
     estimated scf accuracy    <       0.00000007 Ry

     iteration #  7     ecut=    55.00 Ry     beta= 0.30
     Davidson diagonalization with overlap
     ethr =  1.56E-10,  avg # of iterations =  2.1

     negative rho (up, down):  7.764E-06 0.000E+00

     total cpu time spent up to now is       14.1 secs

     total energy              =    -312.38858149 Ry
     estimated scf accuracy    <       0.00000003 Ry

     iteration #  8     ecut=    55.00 Ry     beta= 0.30
     Davidson diagonalization with overlap
     ethr =  5.59E-11,  avg # of iterations =  1.8

     negative rho (up, down):  7.753E-06 0.000E+00

     total cpu time spent up to now is       14.3 secs

     End of self-consistent calculation

          k = 0.0000 0.0000 0.0000 ( 12493 PWs)   bands (ev):

   -46.0454 -45.5498 -44.6346 -44.6260  -4.8839  -4.5436  -4.3568  -4.2733
    -4.1890  -4.1737  -4.0589  -3.4813  -3.3204  -3.2992  -3.1168  -3.0652
    -2.9000  -2.8535  -2.8012  -2.7713  -2.6465  -2.1294  -0.4723   0.6594
     1.7268   3.2046   4.1359   4.1641

          k = 0.0000 0.1250 0.0000 ( 12528 PWs)   bands (ev):

   -46.0448 -45.5491 -44.6339 -44.6252  -4.6722  -4.3582  -4.2066  -4.1402
    -4.0920  -4.0582  -3.9835  -3.5506  -3.3762  -3.2811  -3.2595  -3.0527
    -2.9767  -2.8884  -2.8514  -2.8413  -2.7239  -1.9955  -0.2482   0.8481
     1.9541   3.4132   4.3682   4.3894

          k = 0.0000 0.2500 0.0000 ( 12550 PWs)   bands (ev):

   -46.0431 -45.5473 -44.6319 -44.6232  -4.3936  -4.1699  -4.1137  -3.9563
    -3.8693  -3.6502  -3.5721  -3.3929  -3.3691  -3.3318  -3.2374  -3.0919
    -3.0440  -3.0052  -2.9036  -2.8533  -2.8207  -1.5982   0.3008   1.3833
     2.5307   3.8082   4.5132   4.7159

          k = 0.0000 0.3750 0.0000 ( 12594 PWs)   bands (ev):

   -46.0414 -45.5456 -44.6300 -44.6213  -4.2716  -4.1462  -4.0633  -4.0439
    -3.8678  -3.8361  -3.4923  -3.3750  -3.2781  -3.2139  -3.1899  -3.0750
    -2.9818  -2.7983  -2.7896  -2.0539  -1.6010  -0.6809   0.9375   1.9288
     2.0027   2.3047   3.6518   3.9000

          k = 0.0000-0.5000 0.0000 ( 12618 PWs)   bands (ev):

   -46.0408 -45.5449 -44.6292 -44.6205  -4.2510  -4.2301  -4.0219  -4.0085
    -3.9373  -3.8314  -3.5596  -3.3527  -3.3401  -3.2822  -3.1722  -3.1442
    -2.9688  -2.7888  -2.5919  -0.3770  -0.0204  -0.0182   0.5194   0.6988
     1.0416   1.2793   4.1188   4.4172

          k = 0.1250-0.0000 0.0000 ( 12528 PWs)   bands (ev):

   -46.0448 -45.5491 -44.6339 -44.6252  -4.6792  -4.3715  -4.2395  -4.1841
    -4.1298  -4.0497  -3.8700  -3.5374  -3.3520  -3.3026  -3.2057  -3.1043
    -2.9392  -2.8950  -2.8841  -2.8491  -2.7214  -1.9779  -0.2306   0.8451
     1.9458   3.4159   4.3634   4.3907

          k = 0.1250 0.1250 0.0000 ( 12540 PWs)   bands (ev):

   -46.0441 -45.5484 -44.6331 -44.6243  -4.4350  -4.1441  -4.1085  -4.0971
    -4.0125  -3.9654  -3.8381  -3.5702  -3.4363  -3.3005  -3.2543  -3.1748
    -2.9741  -2.9622  -2.9371  -2.9114  -2.7964  -1.8289   0.0018   1.0427
     2.1858   3.6414   4.5966   4.6254

          k = 0.1250 0.2500 0.0000 ( 12575 PWs)   bands (ev):

   -46.0424 -45.5467 -44.6311 -44.6224  -4.1733  -4.0463  -3.9531  -3.8635
    -3.7630  -3.6495  -3.5713  -3.4396  -3.4006  -3.3892  -3.3140  -3.1652
    -3.1225  -3.0850  -3.0043  -2.9144  -2.6004  -1.3777   0.5784   1.6057
     2.8002   4.0989   4.6828   4.9783

          k = 0.1250 0.3750 0.0000 ( 12609 PWs)   bands (ev):

   -46.0408 -45.5450 -44.6292 -44.6205  -4.1393  -4.0722  -3.9726  -3.8560
    -3.8223  -3.6787  -3.4869  -3.4611  -3.4331  -3.3966  -3.2687  -3.2503
    -3.1069  -2.8841  -2.7450  -1.8858  -1.3727  -0.4001   1.2684   2.1995
     2.2450   2.5924   3.8613   4.1111

          k = 0.1250-0.5000 0.0000 ( 12650 PWs)   bands (ev):

   -46.0402 -45.5443 -44.6285 -44.6198  -4.2445  -4.0262  -3.9346  -3.9247
    -3.8088  -3.6368  -3.5499  -3.5357  -3.4799  -3.4271  -3.3279  -3.2274
    -3.0845  -2.8695  -2.5631  -0.2793   0.1472   0.2524   0.8486   0.9323
     1.4505   1.6460   4.2616   4.6703

          k = 0.1250-0.3750 0.0000 ( 12609 PWs)   bands (ev):

   -46.0408 -45.5450 -44.6292 -44.6205  -4.1393  -4.0722  -3.9726  -3.8560
    -3.8223  -3.6787  -3.4869  -3.4611  -3.4331  -3.3966  -3.2687  -3.2503
    -3.1069  -2.8841  -2.7450  -1.8858  -1.3727  -0.4001   1.2684   2.1995
     2.2450   2.5924   3.8613   4.1111

          k = 0.1250-0.2500 0.0000 ( 12575 PWs)   bands (ev):

   -46.0424 -45.5467 -44.6311 -44.6224  -4.1733  -4.0463  -3.9531  -3.8635
    -3.7630  -3.6495  -3.5713  -3.4396  -3.4006  -3.3892  -3.3140  -3.1652
    -3.1225  -3.0850  -3.0043  -2.9144  -2.6004  -1.3777   0.5784   1.6057
[...]

   -46.0891 -45.5616 -44.6254 -44.6083  -4.4255  -4.1760  -4.1524  -3.9318
    -3.8934  -3.6555  -3.5617  -3.3792  -3.3675  -3.3068  -3.2660  -3.1220
    -3.0463  -3.0037  -2.8717  -2.8368  -2.7989  -1.5647   0.2908   1.3727
     2.5102   3.7973   4.5038   4.7278

          k = 0.0000 0.3750 0.0000 ( 12594 PWs)   bands (ev):

   -46.0875 -45.5599 -44.6235 -44.6064  -4.3048  -4.1695  -4.0813  -4.0682
    -3.8442  -3.8199  -3.4746  -3.3596  -3.3079  -3.2274  -3.2120  -3.0438
    -2.9759  -2.7763  -2.7755  -2.0677  -1.5804  -0.6531   0.9327   1.9205
     1.9906   2.3151   3.6482   3.8905

          k = 0.0000-0.5000 0.0000 ( 12618 PWs)   bands (ev):

   -46.0868 -45.5592 -44.6227 -44.6056  -4.2745  -4.2641  -4.0467  -4.0268
    -3.9184  -3.8084  -3.5406  -3.3825  -3.3249  -3.2902  -3.2001  -3.1126
    -2.9632  -2.7668  -2.5697  -0.3976  -0.0317  -0.0061   0.5389   0.7186
     1.0623   1.2813   4.0921   4.4023

          k = 0.1250-0.0000 0.0000 ( 12528 PWs)   bands (ev):

   -46.0908 -45.5634 -44.6274 -44.6103  -4.7075  -4.3706  -4.2462  -4.1923
    -4.1444  -4.0580  -3.8456  -3.5558  -3.3531  -3.3241  -3.1931  -3.0830
    -2.9226  -2.9177  -2.8760  -2.8534  -2.6901  -1.9526  -0.2440   0.8328
     1.9232   3.4167   4.3668   4.3902

          k = 0.1250 0.1250 0.0000 ( 12540 PWs)   bands (ev):

   -46.0901 -45.5626 -44.6266 -44.6095  -4.4668  -4.1597  -4.1373  -4.1222
    -4.0043  -3.9397  -3.8142  -3.5885  -3.4604  -3.2972  -3.2299  -3.1626
    -3.0048  -2.9504  -2.9342  -2.8998  -2.7660  -1.7997  -0.0116   1.0305
     2.1638   3.6405   4.5993   4.6251

          k = 0.1250 0.2500 0.0000 ( 12575 PWs)   bands (ev):

   -46.0885 -45.5609 -44.6247 -44.6076  -4.2091  -4.0776  -3.9618  -3.8878
    -3.7403  -3.6590  -3.5666  -3.4524  -3.4047  -3.3713  -3.2963  -3.1594
    -3.1186  -3.1106  -2.9816  -2.8913  -2.5851  -1.3446   0.5661   1.5937
     2.7806   4.0877   4.6723   4.9901

          k = 0.1250 0.3750 0.0000 ( 12609 PWs)   bands (ev):

   -46.0869 -45.5592 -44.6227 -44.6056  -4.1637  -4.1090  -4.0025  -3.8638
    -3.8074  -3.6572  -3.4904  -3.4787  -3.4396  -3.4023  -3.2634  -3.2193
    -3.0951  -2.8649  -2.7309  -1.9016  -1.3531  -0.3724   1.2615   2.1801
     2.2420   2.6041   3.8585   4.1025

          k = 0.1250-0.5000 0.0000 ( 12650 PWs)   bands (ev):

   -46.0863 -45.5586 -44.6221 -44.6049  -4.2691  -4.0654  -3.9648  -3.9063
    -3.8160  -3.6160  -3.5715  -3.5267  -3.4855  -3.4441  -3.2949  -3.2231
    -3.0720  -2.8505  -2.5421  -0.2997   0.1632   0.2369   0.8681   0.9529
     1.4703   1.6456   4.2341   4.6496

          k = 0.1250-0.3750 0.0000 ( 12609 PWs)   bands (ev):

   -46.0869 -45.5592 -44.6227 -44.6056  -4.1637  -4.1090  -4.0025  -3.8638
    -3.8074  -3.6572  -3.4904  -3.4787  -3.4396  -3.4023  -3.2634  -3.2193
    -3.0951  -2.8649  -2.7309  -1.9016  -1.3531  -0.3724   1.2615   2.1801
     2.2420   2.6041   3.8585   4.1025

          k = 0.1250-0.2500 0.0000 ( 12575 PWs)   bands (ev):

   -46.0885 -45.5609 -44.6247 -44.6076  -4.2091  -4.0776  -3.9618  -3.8878
    -3.7403  -3.6590  -3.5666  -3.4524  -3.4047  -3.3713  -3.2963  -3.1594
    -3.1186  -3.1106  -2.9816  -2.8913  -2.5851  -1.3446   0.5661   1.5937
     2.7806   4.0877   4.6723   4.9901

          k = 0.1250-0.1250 0.0000 ( 12540 PWs)   bands (ev):

   -46.0901 -45.5626 -44.6266 -44.6095  -4.4668  -4.1597  -4.1373  -4.1222
    -4.0043  -3.9397  -3.8142  -3.5885  -3.4604  -3.2972  -3.2299  -3.1626
    -3.0048  -2.9504  -2.9342  -2.8998  -2.7660  -1.7997  -0.0116   1.0305
     2.1638   3.6405   4.5993   4.6251

          k = 0.2500-0.0000 0.0000 ( 12550 PWs)   bands (ev):

   -46.0892 -45.5616 -44.6254 -44.6083  -4.4358  -4.1867  -4.1493  -4.0548
    -3.8798  -3.6329  -3.5555  -3.3728  -3.3457  -3.2802  -3.1885  -3.1246
    -3.0521  -3.0319  -2.8659  -2.8517  -2.7813  -1.5180   0.3458   1.3663
     2.4872   3.7970   4.5300   4.9445

          k = 0.2500 0.1250 0.0000 ( 12575 PWs)   bands (ev):

   -46.0885 -45.5609 -44.6247 -44.6076  -4.2134  -4.0765  -3.9697  -3.8745
    -3.8471  -3.6403  -3.5647  -3.4623  -3.3930  -3.3485  -3.2135  -3.1846
    -3.1186  -3.1090  -2.9732  -2.9340  -2.5460  -1.3110   0.6058   1.5880
     2.7675   4.0875   4.7106   5.1914

          k = 0.2500 0.2500 0.0000 ( 12610 PWs)   bands (ev):

   -46.0870 -45.5593 -44.6228 -44.6057  -4.0646  -3.9012  -3.8080  -3.7399
    -3.6536  -3.6397  -3.5006  -3.4792  -3.4584  -3.3734  -3.3330  -3.2997
    -3.1843  -3.0941  -3.0356  -2.6652  -1.9517  -0.7136   1.2584   2.2244
     3.5077   4.4405   4.8762   5.4674

          k = 0.2500 0.3750 0.0000 ( 12622 PWs)   bands (ev):

   -46.0853 -45.5576 -44.6209 -44.6038  -4.1498  -3.9834  -3.8868  -3.8316
    -3.8048  -3.7539  -3.5923  -3.5228  -3.4211  -3.3418  -3.2960  -3.1992
    -3.0697  -2.9908  -2.6790  -1.4457  -0.7255   0.3750   2.0859   2.5921
     3.0830   3.3224   4.4158   4.6946

          k = 0.2500-0.5000 0.0000 ( 12660 PWs)   bands (ev):

   -46.0847 -45.5569 -44.6202 -44.6031  -4.2565  -3.9590  -3.9352  -3.8970
    -3.8583  -3.8108  -3.6679  -3.5136  -3.4664  -3.3532  -3.2619  -3.1692
    -3.0365  -2.9008  -2.4949   0.0381   0.6898   0.8234   1.6291   1.6295
     2.4728   2.6056   4.5824   5.1488

          k = 0.2500-0.3750 0.0000 ( 12622 PWs)   bands (ev):

   -46.0853 -45.5576 -44.6209 -44.6038  -4.1498  -3.9834  -3.8868  -3.8316
    -3.8048  -3.7539  -3.5923  -3.5228  -3.4211  -3.3418  -3.2960  -3.1992
    -3.0697  -2.9908  -2.6790  -1.4457  -0.7255   0.3750   2.0859   2.5921
     3.0830   3.3224   4.4158   4.6946

          k = 0.2500-0.2500 0.0000 ( 12610 PWs)   bands (ev):

   -46.0870 -45.5593 -44.6228 -44.6057  -4.0646  -3.9012  -3.8080  -3.7399
    -3.6536  -3.6397  -3.5006  -3.4792  -3.4584  -3.3734  -3.3330  -3.2997
    -3.1843  -3.0941  -3.0356  -2.6652  -1.9517  -0.7136   1.2584   2.2244
     3.5077   4.4405   4.8762   5.4674

          k = 0.2500-0.1250 0.0000 ( 12575 PWs)   bands (ev):

   -46.0885 -45.5609 -44.6247 -44.6076  -4.2134  -4.0765  -3.9697  -3.8745
    -3.8471  -3.6403  -3.5647  -3.4623  -3.3930  -3.3485  -3.2135  -3.1846
    -3.1186  -3.1090  -2.9732  -2.9340  -2.5460  -1.3110   0.6058   1.5880
     2.7675   4.0875   4.7106   5.1914

          k = 0.3750-0.0000 0.0000 ( 12594 PWs)   bands (ev):

   -46.0876 -45.5599 -44.6235 -44.6064  -4.3135  -4.1522  -4.0807  -4.0728
    -3.9555  -3.7739  -3.4335  -3.3333  -3.3079  -3.2379  -3.2160  -3.0338
    -3.0120  -2.8312  -2.7593  -2.0486  -1.5278  -0.5757   1.0072   1.8466
     2.0815   2.7566   3.3442   3.8918

          k = 0.3750 0.1250 0.0000 ( 12609 PWs)   bands (ev):

   -46.0870 -45.5592 -44.6227 -44.6056  -4.1471  -4.1077  -4.0019  -3.8740
    -3.7645  -3.7491  -3.4898  -3.4729  -3.4182  -3.3888  -3.2590  -3.2102
    -3.1399  -2.9135  -2.7197  -1.8834  -1.3041  -0.2993   1.3216   2.1072
     2.3251   3.0254   3.5633   4.1052

          k = 0.3750 0.2500 0.0000 ( 12622 PWs)   bands (ev):

   -46.0854 -45.5576 -44.6209 -44.6038  -4.1331  -3.9788  -3.8845  -3.8401
    -3.8098  -3.7122  -3.5926  -3.5456  -3.3897  -3.3185  -3.2990  -3.2044
    -3.1781  -3.0104  -2.6721  -1.4334  -0.6949   0.4276   2.1023   2.6156
     3.0341   3.6984   4.1608   4.7107

          k = 0.3750 0.3750 0.0000 ( 12670 PWs)   bands (ev):

   -46.0839 -45.5560 -44.6191 -44.6020  -4.1593  -4.1460  -4.1051  -4.1005
    -3.8954  -3.8640  -3.7230  -3.6816  -3.3612  -3.2863  -3.1959  -2.7904
    -2.6984  -2.6410  -2.5767  -0.4862   0.3945   1.5610   2.4785   3.1385
     3.6521   4.2952   4.6278   5.2934

          k = 0.3750-0.5000 0.0000 ( 12656 PWs)   bands (ev):

   -46.0832 -45.5553 -44.6183 -44.6012  -4.2644  -4.2452  -4.2137  -4.1082
    -3.9681  -3.8388  -3.8374  -3.6664  -3.4193  -3.2730  -3.1719  -2.6499
    -2.5910  -2.4768  -2.3682   0.7925   1.3694   1.7072   2.4257   2.7341
     3.6679   3.9025   4.8215   5.4432

          k = 0.3750-0.3750 0.0000 ( 12670 PWs)   bands (ev):

   -46.0839 -45.5560 -44.6191 -44.6020  -4.1593  -4.1460  -4.1051  -4.1005
    -3.8954  -3.8640  -3.7230  -3.6816  -3.3612  -3.2863  -3.1959  -2.7904
    -2.6984  -2.6410  -2.5767  -0.4862   0.3945   1.5610   2.4785   3.1385
     3.6521   4.2952   4.6278   5.2934

          k = 0.3750-0.2500 0.0000 ( 12622 PWs)   bands (ev):

   -46.0854 -45.5576 -44.6209 -44.6038  -4.1331  -3.9788  -3.8845  -3.8401
    -3.8098  -3.7122  -3.5926  -3.5456  -3.3897  -3.3185  -3.2990  -3.2044
    -3.1781  -3.0104  -2.6721  -1.4334  -0.6949   0.4276   2.1023   2.6156
     3.0341   3.6984   4.1608   4.7107

          k = 0.3750-0.1250 0.0000 ( 12609 PWs)   bands (ev):

   -46.0870 -45.5592 -44.6227 -44.6056  -4.1471  -4.1077  -4.0019  -3.8740
    -3.7645  -3.7491  -3.4898  -3.4729  -3.4182  -3.3888  -3.2590  -3.2102
    -3.1399  -2.9135  -2.7197  -1.8834  -1.3041  -0.2993   1.3216   2.1072
     2.3251   3.0254   3.5633   4.1052

          k =-0.5000 0.0000 0.0000 ( 12618 PWs)   bands (ev):

   -46.0870 -45.5592 -44.6227 -44.6056  -4.2726  -4.2559  -4.0401  -4.0382
    -3.9144  -3.8682  -3.4910  -3.3824  -3.3032  -3.2901  -3.2147  -3.1005
    -3.0001  -2.8223  -2.5492  -0.3914  -0.0554   0.0384   0.4224   0.9372
     0.9519   2.1728   3.2636   4.3001

          k =-0.5000 0.1250 0.0000 ( 12650 PWs)   bands (ev):

   -46.0864 -45.5586 -44.6221 -44.6049  -4.2506  -4.0646  -3.9648  -3.8557
    -3.8282  -3.7044  -3.5714  -3.4957  -3.4641  -3.4504  -3.2857  -3.2202
    -3.1215  -2.8991  -2.5277  -0.2941   0.2115   0.2195   0.7527   1.2310
     1.3336   2.4130   3.4988   4.4813

          k =-0.5000 0.2500 0.0000 ( 12660 PWs)   bands (ev):

   -46.0848 -45.5569 -44.6202 -44.6031  -4.2383  -3.9558  -3.9329  -3.8949
    -3.8249  -3.8110  -3.6632  -3.5379  -3.4086  -3.3495  -3.2648  -3.1752
    -3.1536  -2.9311  -2.4900   0.0382   0.7293   0.8284   1.5467   1.9368
     2.2924   3.1069   4.1436   4.9863

          k =-0.5000 0.3750 0.0000 ( 12656 PWs)   bands (ev):

   -46.0832 -45.5553 -44.6183 -44.6012  -4.2644  -4.2289  -4.2120  -4.1251
    -3.9666  -3.8469  -3.7851  -3.7048  -3.3546  -3.3323  -3.1739  -2.6475
    -2.5966  -2.4852  -2.3888   0.7748   1.4006   1.6974   2.4585   2.9552
     3.4615   4.0151   4.8783   5.3999

          k =-0.5000-0.5000 0.0000 ( 12564 PWs)   bands (ev):

   -46.0823 -45.5543 -44.6173 -44.6001  -4.3801  -4.3341  -4.2382  -4.2203
    -4.0792  -3.8251  -3.7789  -3.7724  -3.3987  -3.3315  -3.1433  -2.5172
    -2.3399  -2.2892  -2.1709   1.5923   1.6328   2.8007   2.9151   3.5862
     3.9274   4.4893   4.6091   4.6286

     the Fermi energy is     1.1358 ev

!    total energy              =    -312.38900234 Ry
     estimated scf accuracy    <          8.6E-09 Ry
     smearing contrib. (-TS)   =       0.00071650 Ry
     internal energy E=F+TS    =    -312.38971884 Ry

     The total energy is F=E-TS. E is the sum of the following terms:
     one-electron contribution =   -2719.28326683 Ry
     hartree contribution      =    1377.97644999 Ry
     xc contribution           =     -81.44089857 Ry
     ewald contribution        =    1110.47115806 Ry
     DFT-D3 Dispersion         =      -0.11316148 Ry

     convergence has been achieved in   7 iterations

     negative rho (up, down):  7.599E-06 0.000E+00

     Forces acting on atoms (cartesian axes, Ry/au):

     atom    1 type  1   force =     0.00000021   -0.00000003    0.00009889
     atom    2 type  1   force =    -0.00000016   -0.00000004   -0.00042416
     atom    3 type  1   force =    -0.00000010   -0.00000002    0.00021150
     atom    4 type  2   force =    -0.00000004    0.00000017    0.00034037
     atom    5 type  2   force =    -0.00000014   -0.00000012   -0.00014071
     atom    6 type  2   force =     0.00000011    0.00000006    0.00088883
     atom    7 type  2   force =     0.00000012   -0.00000002   -0.00097471
     The non-local contrib.  to forces
     atom    1 type  1   force =     0.00000005    0.00000032    0.03442141
     atom    2 type  1   force =    -0.00000010   -0.00000001   -0.00515691
     atom    3 type  1   force =    -0.00000007   -0.00000017    0.02361436
     atom    4 type  2   force =    -0.00000539   -0.00000474    0.00038526
     atom    5 type  2   force =    -0.00000475   -0.00000449    0.00017455
     atom    6 type  2   force =    -0.00000814   -0.00000780   -0.05698576
     atom    7 type  2   force =     0.00001088   -0.00001009    0.04571062
     The ionic contribution  to forces
     atom    1 type  1   force =     0.00000029   -0.00000191   71.10639949
     atom    2 type  1   force =    -0.00000009    0.00000013    0.23494740
     atom    3 type  1   force =     0.00000065   -0.00000007  -71.40934684
     atom    4 type  2   force =     0.00000275    0.00000295    9.96304684
     atom    5 type  2   force =    -0.00000211   -0.00000385   -9.65731200
     atom    6 type  2   force =    -0.00000017    0.00000219  -27.59867201
     atom    7 type  2   force =    -0.00000131    0.00000056   27.36093711
     The local contribution  to forces
     atom    1 type  1   force =    -0.00000026    0.00000205  -71.13551095
     atom    2 type  1   force =     0.00000055   -0.00000043   -0.23017318
     atom    3 type  1   force =    -0.00000041   -0.00000014   71.38140174
     atom    4 type  2   force =     0.00000263    0.00000204   -9.96157360
     atom    5 type  2   force =     0.00000659    0.00000824    9.65566086
     atom    6 type  2   force =     0.00000832    0.00000566   27.65434966
     atom    7 type  2   force =    -0.00000949    0.00000952  -27.40536702
     The core correction contribution to forces
     atom    1 type  1   force =    -0.00000001    0.00000002   -0.00133080
     atom    2 type  1   force =     0.00000002   -0.00000000    0.00004607
     atom    3 type  1   force =     0.00000001   -0.00000002    0.00022983
     atom    4 type  2   force =     0.00000000    0.00000000    0.00000000
     atom    5 type  2   force =     0.00000000    0.00000000    0.00000000
     atom    6 type  2   force =     0.00000000    0.00000000    0.00000000
     atom    7 type  2   force =     0.00000000    0.00000000    0.00000000
     The Hubbard contrib.    to forces
     atom    1 type  1   force =     0.00000000    0.00000000    0.00000000
     atom    2 type  1   force =     0.00000000    0.00000000    0.00000000
     atom    3 type  1   force =     0.00000000    0.00000000    0.00000000
     atom    4 type  2   force =     0.00000000    0.00000000    0.00000000
     atom    5 type  2   force =     0.00000000    0.00000000    0.00000000
     atom    6 type  2   force =     0.00000000    0.00000000    0.00000000
     atom    7 type  2   force =     0.00000000    0.00000000    0.00000000
     The SCF correction term to forces
     atom    1 type  1   force =     0.00000010   -0.00000050    0.00010282
     atom    2 type  1   force =    -0.00000058    0.00000027    0.00005131
     atom    3 type  1   force =    -0.00000032    0.00000038    0.00004355
     atom    4 type  2   force =    -0.00000006   -0.00000007   -0.00009411
     atom    5 type  2   force =     0.00000009   -0.00000002    0.00005537
     atom    6 type  2   force =     0.00000008    0.00000002    0.00002689
     atom    7 type  2   force =     0.00000001   -0.00000001    0.00000790

     DFT-D3 dispersion contribution to forces:
     atom    1 type  1   force =    -0.00000001   -0.00000000   -0.00397025
     atom    2 type  1   force =    -0.00000000    0.00000000   -0.00012601
     atom    3 type  1   force =     0.00000000   -0.00000000    0.00428170
     atom    4 type  2   force =    -0.00000000   -0.00000000   -0.00141119
     atom    5 type  2   force =     0.00000000    0.00000000    0.00129334
     atom    6 type  2   force =     0.00000000   -0.00000000    0.00218290
     atom    7 type  2   force =     0.00000001    0.00000000   -0.00225049

     Total force =     0.001453     Total SCF correction =     0.000167
     SCF correction compared to forces is large: reduce conv_thr to get better values


     Computing stress (Cartesian axis) and pressure


     negative rho (up, down):  7.599E-06 0.000E+00
          total   stress  (Ry/bohr**3)                   (kbar)     P=      -11.79
  -0.00010999  -0.00000000   0.00000000          -16.18       -0.00        0.00
  -0.00000000  -0.00007039  -0.00000000           -0.00      -10.35       -0.00
   0.00000000  -0.00000000  -0.00005999            0.00       -0.00       -8.83

     Energy error            =      1.6E-05 Ry
     Gradient error          =      9.7E-04 Ry/Bohr

     bfgs converged in  11 scf cycles and  10 bfgs steps
     (criteria: energy <  1.0E-04 Ry, force <  1.0E-03 Ry/Bohr)

     End of BFGS Geometry Optimization

     Final energy             =    -312.3890023406 Ry

     File ./LiAg_mp-2426_100_bridge_0/LiAg_mp-2426_100_bridge_0.bfgs deleted, as requested
Begin final coordinates

ATOMIC_POSITIONS (angstrom)
Ag            0.7806813152        0.7806849699       17.7318927312
Ag            0.7806831123        0.7806858153       14.6821016102
Ag            0.7806854571        0.7806850356       11.5891936402
Li            2.3420512725        2.3420544117       16.2330549480
Li            2.3420552986        2.3420571413       13.1354308111
Li            2.3420557648        2.3420533487       10.0094192554
Li            0.7806788182        2.3420544600       19.8411864507
End final coordinates



     Writing all to output data dir ./LiAg_mp-2426_100_bridge_0/LiAg_mp-2426_100_bridge_0.save/

     init_run     :      1.24s CPU      1.95s WALL (       1 calls)
     electrons    :     16.06s CPU     20.77s WALL (      11 calls)
     update_pot   :      1.55s CPU      1.64s WALL (      10 calls)
     forces       :      1.41s CPU      1.70s WALL (      11 calls)
     force_dftd3  :      0.11s CPU      0.20s WALL (      11 calls)
     stress       :      3.92s CPU      4.09s WALL (      11 calls)
     stres_dftd3  :      0.10s CPU      0.15s WALL (      11 calls)

     Called by init_run:
     wfcinit      :      0.20s CPU      0.38s WALL (       1 calls)
     potinit      :      0.43s CPU      0.73s WALL (       1 calls)
     hinit0       :      0.51s CPU      0.65s WALL (       1 calls)

     Called by electrons:
     c_bands      :     12.23s CPU     14.06s WALL (      88 calls)
     sum_band     :      2.28s CPU      2.86s WALL (      88 calls)
     v_of_rho     :      0.81s CPU      1.80s WALL (      92 calls)
     newd         :      0.47s CPU      0.71s WALL (      92 calls)
     mix_rho      :      0.09s CPU      0.20s WALL (      88 calls)
     energy_dftd3 :      0.02s CPU      0.02s WALL (      11 calls)

     Called by c_bands:
     init_us_2    :      0.11s CPU      0.13s WALL (    1791 calls)
     init_us_2:cp :      0.11s CPU      0.13s WALL (    1791 calls)
     cegterg      :     11.34s CPU     12.22s WALL (     792 calls)

     Called by *egterg:
     cdiaghg      :      3.01s CPU      3.09s WALL (    3019 calls)
     h_psi        :      7.09s CPU      7.83s WALL (    3181 calls)
     s_psi        :      0.25s CPU      0.26s WALL (    3181 calls)
     g_psi        :      0.03s CPU      0.03s WALL (    2380 calls)

     Called by h_psi:
     h_psi:calbec :      0.60s CPU      0.74s WALL (    3181 calls)
     vloc_psi     :      6.22s CPU      6.79s WALL (    3181 calls)
     add_vuspsi   :      0.25s CPU      0.27s WALL (    3181 calls)

     General routines
     calbec       :      0.98s CPU      1.19s WALL (    4468 calls)
     fft          :      1.46s CPU      2.98s WALL (    1466 calls)
     ffts         :      0.44s CPU      0.73s WALL (     180 calls)
     fftw         :      6.77s CPU      7.38s WALL (  132424 calls)
     interpolate  :      0.41s CPU      0.69s WALL (      92 calls)

     Parallel routines

     PWSCF        :     24.65s CPU     31.96s WALL


   This run was terminated on:   7:20:43   6Aug2025            

=------------------------------------------------------------------------------=
   JOB DONE.
=------------------------------------------------------------------------------=
