
     Program PWSCF v.7.2 starts on  4Aug2025 at 12:24:35 

     This program is part of the open-source Quantum ESPRESSO suite
     for quantum simulation of materials; please cite
         "P. Giannozzi et al., J. Phys.:Condens. Matter 21 395502 (2009);
         "P. Giannozzi et al., J. Phys.:Condens. Matter 29 465901 (2017);
         "P. Giannozzi et al., J. Chem. Phys. 152 154105 (2020);
          URL http://www.quantum-espresso.org", 
     in publications or presentations arising from this work. More details at
     http://www.quantum-espresso.org/quote

     Parallel version (MPI & OpenMP), running on     256 processor cores
     Number of MPI processes:               256
     Threads/MPI process:                     1

     MPI processes distributed on     4 nodes
     241218 MiB available memory on the printing compute node when the environment starts

     Reading input from LiAg_mp-2426_100.in

     Current dimensions of program PWSCF are:
     Max number of different atomic species (ntypx) = 10
     Max number of k-points (npk) =  40000
     Max angular momentum in pseudopotentials (lmaxx) =  4
     Message from routine iosys:
     restart disabled: needed files not found

     K-points division:     npool     =       4
     R & G space division:  proc/nbgrp/npool/nimage =      64
     Subspace diagonalization in iterative solution of the eigenvalue problem:
     a serial algorithm will be used


     Parallelization info
     --------------------
     sticks:   dense  smooth     PW     G-vecs:    dense   smooth      PW
     Min          21       9      2                 5367     1557     224
     Max          22      10      3                 5430     1610     289
     Sum        1373     609    185               345099   100593   16881

     Using Slab Decomposition



     bravais-lattice index     =            0
     lattice parameter (alat)  =       5.9011  a.u.
     unit-cell volume          =    1829.8696 (a.u.)^3
     number of atoms/cell      =            6
     number of atomic types    =            2
     number of electrons       =        42.00
     number of Kohn-Sham states=           25
     kinetic-energy cutoff     =      55.0000  Ry
     charge density cutoff     =     500.0000  Ry
     scf convergence threshold =      1.0E-06
     mixing beta               =       0.3000
     number of iterations used =            8  plain     mixing
     energy convergence thresh.=      1.0E-04
     force convergence thresh. =      1.0E-03
     Exchange-correlation= PBE
                           (   1   4   3   4   0   0   0)
     nstep                     =          500


     celldm(1)=   5.901124  celldm(2)=   0.000000  celldm(3)=   0.000000
     celldm(4)=   0.000000  celldm(5)=   0.000000  celldm(6)=   0.000000

     crystal axes: (cart. coord. in units of alat)
               a(1) = (   1.000000   0.000000   0.000000 )  
               a(2) = (   0.000000   1.000000   0.000000 )  
               a(3) = (   0.000000   0.000000   8.904631 )  

     reciprocal axes: (cart. coord. in units 2 pi/alat)
               b(1) = (  1.000000 -0.000000  0.000000 )  
               b(2) = (  0.000000  1.000000  0.000000 )  
               b(3) = ( -0.000000 -0.000000  0.112301 )  


     PseudoPot. # 1 for Ag read from file:
     /home/ecastro/trabajo_final/pseudos/Ag.pbe-n-rrkjus_psl.1.0.0.UPF
     MD5 check sum: 81cdf87bacf708300839c66ee23ce017
     Pseudo is Ultrasoft + core correction, Zval = 11.0
     Generated using &quot;atomic&quot; code by A. Dal Corso  v.6.2.2
     Using radial grid of 1237 points,  6 beta functions with: 
                l(1) =   0
                l(2) =   0
                l(3) =   1
                l(4) =   1
                l(5) =   2
                l(6) =   2
     Q(r) pseudized with 0 coefficients 


     PseudoPot. # 2 for Li read from file:
     /home/ecastro/trabajo_final/pseudos/Li.pbe-s-rrkjus_psl.1.0.0.UPF
     MD5 check sum: 9f98d2529904d60b716d33989e9bc179
     Pseudo is Ultrasoft, Zval =  3.0
     Generated using &quot;atomic&quot; code by A. Dal Corso  v.6.3MaX
     Using radial grid of 1017 points,  4 beta functions with: 
                l(1) =   0
                l(2) =   0
                l(3) =   1
                l(4) =   1
     Q(r) pseudized with 0 coefficients 


     atomic species   valence    mass     pseudopotential
        Ag            11.00   107.86820     Ag( 1.00)
        Li             3.00     6.94100     Li( 1.00)

     No symmetry found



   Cartesian axes

     site n.     atom                  positions (alat units)
         1           Ag  tau(   1) = (   0.2500000   0.2500000   5.7023156  )
         2           Ag  tau(   2) = (   0.2500000   0.2500000   4.7023156  )
         3           Ag  tau(   3) = (   0.2500000   0.2500000   3.7023156  )
         4           Li  tau(   4) = (   0.7500000   0.7500000   5.2023156  )
         5           Li  tau(   5) = (   0.7500000   0.7500000   4.2023156  )
         6           Li  tau(   6) = (   0.7500000   0.7500000   3.2023156  )

     --------------------------------------------
     DFT-D3 Dispersion Correction (no 3-body):
     --------------------------------------------
       Reference C6 values for interpolation: 

         atom   Coordination number   C6
         Li         0.000          2326.89
         Li         0.987           170.64
         Ag         0.000           853.49
         Ag         0.968           537.23

       Values used:

         atom   Coordination number  R0_AB[au]  C6      C8
         Ag         5.947            3.147    537.23  47741.54
         Ag        10.131            3.147    537.23  47741.54
         Ag         9.669            3.147    537.23  47741.54
         Li        10.555            3.303    170.64  12899.87
         Li        11.206            3.303    170.64  12899.87
         Li         6.832            3.303    170.64  12899.87

         Molecular C6 ( Ry / a.u.^6 ) =     11578.42


     number of k points=    34  Methfessel-Paxton smearing, width (Ry)=  0.0300
                       cart. coord. in units 2pi/alat
        k(    1) = (   0.0000000   0.0000000   0.0000000), wk =   0.0312500
        k(    2) = (   0.0000000   0.1250000   0.0000000), wk =   0.0625000
        k(    3) = (   0.0000000   0.2500000   0.0000000), wk =   0.0625000
        k(    4) = (   0.0000000   0.3750000   0.0000000), wk =   0.0625000
        k(    5) = (   0.0000000  -0.5000000   0.0000000), wk =   0.0312500
        k(    6) = (   0.1250000  -0.0000000   0.0000000), wk =   0.0625000
        k(    7) = (   0.1250000   0.1250000   0.0000000), wk =   0.0625000
        k(    8) = (   0.1250000   0.2500000   0.0000000), wk =   0.0625000
        k(    9) = (   0.1250000   0.3750000   0.0000000), wk =   0.0625000
        k(   10) = (   0.1250000  -0.5000000   0.0000000), wk =   0.0625000
        k(   11) = (   0.1250000  -0.3750000   0.0000000), wk =   0.0625000
        k(   12) = (   0.1250000  -0.2500000   0.0000000), wk =   0.0625000
        k(   13) = (   0.1250000  -0.1250000   0.0000000), wk =   0.0625000
        k(   14) = (   0.2500000  -0.0000000   0.0000000), wk =   0.0625000
        k(   15) = (   0.2500000   0.1250000   0.0000000), wk =   0.0625000
        k(   16) = (   0.2500000   0.2500000   0.0000000), wk =   0.0625000
        k(   17) = (   0.2500000   0.3750000   0.0000000), wk =   0.0625000
        k(   18) = (   0.2500000  -0.5000000   0.0000000), wk =   0.0625000
        k(   19) = (   0.2500000  -0.3750000   0.0000000), wk =   0.0625000
        k(   20) = (   0.2500000  -0.2500000   0.0000000), wk =   0.0625000
        k(   21) = (   0.2500000  -0.1250000   0.0000000), wk =   0.0625000
        k(   22) = (   0.3750000  -0.0000000   0.0000000), wk =   0.0625000
        k(   23) = (   0.3750000   0.1250000   0.0000000), wk =   0.0625000
        k(   24) = (   0.3750000   0.2500000   0.0000000), wk =   0.0625000
        k(   25) = (   0.3750000   0.3750000   0.0000000), wk =   0.0625000
        k(   26) = (   0.3750000  -0.5000000   0.0000000), wk =   0.0625000
        k(   27) = (   0.3750000  -0.3750000   0.0000000), wk =   0.0625000
        k(   28) = (   0.3750000  -0.2500000   0.0000000), wk =   0.0625000
        k(   29) = (   0.3750000  -0.1250000   0.0000000), wk =   0.0625000
        k(   30) = (  -0.5000000   0.0000000   0.0000000), wk =   0.0312500
        k(   31) = (  -0.5000000   0.1250000   0.0000000), wk =   0.0625000
        k(   32) = (  -0.5000000   0.2500000   0.0000000), wk =   0.0625000
        k(   33) = (  -0.5000000   0.3750000   0.0000000), wk =   0.0625000
        k(   34) = (  -0.5000000  -0.5000000   0.0000000), wk =   0.0312500

     Dense  grid:   345099 G-vectors     FFT dimensions: (  45,  45, 375)

     Smooth grid:   100593 G-vectors     FFT dimensions: (  27,  27, 250)

     Estimated max dynamical RAM per process >      11.93 MB

     Estimated total dynamical RAM >       2.74 GB
     Cannot read rho : file not found

     Initial potential from superposition of free atoms

     starting charge      41.9850, renormalised to      42.0000

     negative rho (up, down):  4.013E-05 0.000E+00
     Message from routine qexsd_readschema :
     xml data file ./LiAg_100/LiAg_100.save/data-file-schema.xml not found
     Cannot read wfcs: file not found
     Starting wfcs are   42 randomized atomic wfcs

     total cpu time spent up to now is        2.5 secs

     per-process dynamical memory:   170.6 Mb

     Self-consistent Calculation

     iteration #  1     ecut=    55.00 Ry     beta= 0.30
     Davidson diagonalization with overlap
     c_bands:  1 eigenvalues not converged
     c_bands:  1 eigenvalues not converged
     ethr =  1.00E-05,  avg # of iterations = 16.4

     negative rho (up, down):  3.337E-05 0.000E+00

     total cpu time spent up to now is        3.5 secs

     total energy              =    -297.36058936 Ry
     estimated scf accuracy    <       0.50524596 Ry

     iteration #  2     ecut=    55.00 Ry     beta= 0.30
     Davidson diagonalization with overlap
     ethr =  1.20E-03,  avg # of iterations =  3.6

     negative rho (up, down):  9.219E-05 0.000E+00

     total cpu time spent up to now is        4.0 secs

     total energy              =    -297.35560898 Ry
     estimated scf accuracy    <       1.45895177 Ry

     iteration #  3     ecut=    55.00 Ry     beta= 0.30
     Davidson diagonalization with overlap
     ethr =  1.20E-03,  avg # of iterations =  2.1

     negative rho (up, down):  7.211E-05 0.000E+00

     total cpu time spent up to now is        4.5 secs

     total energy              =    -297.50038057 Ry
     estimated scf accuracy    <       0.06429223 Ry

     iteration #  4     ecut=    55.00 Ry     beta= 0.30
     Davidson diagonalization with overlap
     ethr =  1.53E-04,  avg # of iterations =  5.9

     negative rho (up, down):  7.280E-05 0.000E+00

     total cpu time spent up to now is        5.1 secs

     total energy              =    -297.49417529 Ry
     estimated scf accuracy    <       0.36321721 Ry

     iteration #  5     ecut=    55.00 Ry     beta= 0.30
     Davidson diagonalization with overlap
     ethr =  1.53E-04,  avg # of iterations =  2.1

     negative rho (up, down):  4.091E-05 0.000E+00

     total cpu time spent up to now is        5.4 secs

     total energy              =    -297.50952691 Ry
     estimated scf accuracy    <       0.00580466 Ry

     iteration #  6     ecut=    55.00 Ry     beta= 0.30
     Davidson diagonalization with overlap
     ethr =  1.38E-05,  avg # of iterations =  7.1

     negative rho (up, down):  1.912E-05 0.000E+00

     total cpu time spent up to now is        5.6 secs

     total energy              =    -297.51004055 Ry
     estimated scf accuracy    <       0.00058337 Ry

     iteration #  7     ecut=    55.00 Ry     beta= 0.30
     Davidson diagonalization with overlap
     ethr =  1.39E-06,  avg # of iterations =  4.1

     negative rho (up, down):  2.651E-05 0.000E+00

     total cpu time spent up to now is        5.9 secs

     total energy              =    -297.51006853 Ry
     estimated scf accuracy    <       0.00017700 Ry

     iteration #  8     ecut=    55.00 Ry     beta= 0.30
     Davidson diagonalization with overlap
     ethr =  4.21E-07,  avg # of iterations =  2.2

     negative rho (up, down):  2.629E-05 0.000E+00

     total cpu time spent up to now is        6.0 secs

     total energy              =    -297.51009206 Ry
     estimated scf accuracy    <       0.00006490 Ry

     iteration #  9     ecut=    55.00 Ry     beta= 0.30
     Davidson diagonalization with overlap
     ethr =  1.55E-07,  avg # of iterations =  1.9

     negative rho (up, down):  2.301E-05 0.000E+00

     total cpu time spent up to now is        6.2 secs

     total energy              =    -297.51009593 Ry
     estimated scf accuracy    <       0.00000655 Ry

     iteration # 10     ecut=    55.00 Ry     beta= 0.30
     Davidson diagonalization with overlap
     ethr =  1.56E-08,  avg # of iterations =  4.4

     negative rho (up, down):  1.950E-05 0.000E+00

     total cpu time spent up to now is        6.4 secs

     total energy              =    -297.51009782 Ry
     estimated scf accuracy    <       0.00000627 Ry

     iteration # 11     ecut=    55.00 Ry     beta= 0.30
     Davidson diagonalization with overlap
     ethr =  1.49E-08,  avg # of iterations =  1.1

     negative rho (up, down):  1.561E-05 0.000E+00

     total cpu time spent up to now is        6.6 secs

     End of self-consistent calculation

          k = 0.0000 0.0000 0.0000 ( 12493 PWs)   bands (ev):

   -46.2157 -45.3042 -45.2741  -5.4773  -5.1573  -4.8998  -4.8008  -4.7736
    -4.4702  -4.3361  -3.9006  -3.9006  -3.8133  -3.6252  -3.6252  -3.4338
    -3.3890  -3.1429  -3.1429  -2.8944  -2.2548  -0.4264   1.1138   2.7051
     3.6802

          k = 0.0000 0.1250 0.0000 ( 12528 PWs)   bands (ev):

   -46.2151 -45.3034 -45.2733  -5.2660  -4.9815  -4.7858  -4.7268  -4.6701
    -4.3648  -4.1865  -4.0631  -3.8830  -3.8534  -3.6141  -3.5988  -3.5192
    -3.4685  -3.2513  -3.1328  -2.9698  -2.1176  -0.2201   1.3381   2.9244
     3.9089

          k = 0.0000 0.2500 0.0000 ( 12550 PWs)   bands (ev):

   -46.2133 -45.3015 -45.2713  -4.9955  -4.7945  -4.6594  -4.4372  -4.2666
    -4.1507  -4.1349  -3.9897  -3.8409  -3.7170  -3.6610  -3.6599  -3.5788
    -3.4813  -3.1551  -3.1505  -3.1036  -1.6941   0.3136   1.8883   3.2990
     3.9319

          k = 0.0000 0.3750 0.0000 ( 12594 PWs)   bands (ev):

   -46.2116 -45.2996 -45.2695  -4.8769  -4.7118  -4.6842  -4.5728  -4.2977
    -4.1786  -3.9064  -3.8328  -3.7950  -3.7842  -3.7574  -3.5523  -3.3160
    -3.1731  -3.0821  -2.6155  -1.9505  -0.7597   0.9249   1.4104   1.7664
     3.2696

          k = 0.0000-0.5000 0.0000 ( 12618 PWs)   bands (ev):

   -46.2109 -45.2988 -45.2687  -4.8360  -4.8110  -4.6424  -4.5410  -4.3834
    -4.1432  -3.9806  -3.9028  -3.8361  -3.7774  -3.7203  -3.5399  -3.3838
    -3.0720  -2.9547  -0.9726  -0.5785  -0.4727   0.0997   0.4008   0.9990
     2.7421

          k = 0.1250-0.0000 0.0000 ( 12528 PWs)   bands (ev):

   -46.2151 -45.3034 -45.2733  -5.2660  -4.9815  -4.7858  -4.7268  -4.6701
    -4.3648  -4.1865  -4.0631  -3.8830  -3.8534  -3.6141  -3.5988  -3.5192
    -3.4685  -3.2513  -3.1328  -2.9698  -2.1176  -0.2201   1.3381   2.9244
     3.9090

          k = 0.1250 0.1250 0.0000 ( 12540 PWs)   bands (ev):

   -46.2143 -45.3026 -45.2725  -5.0129  -4.7634  -4.7172  -4.6773  -4.6119
    -4.1684  -4.1564  -4.0596  -4.0155  -3.8703  -3.7125  -3.6083  -3.5585
    -3.4641  -3.2475  -3.2246  -3.0496  -1.9607   0.0014   1.5777   3.1619
     4.1437

          k = 0.1250 0.2500 0.0000 ( 12575 PWs)   bands (ev):

   -46.2126 -45.3007 -45.2706  -4.7455  -4.6298  -4.5674  -4.4288  -4.1628
    -4.1523  -4.0905  -4.0184  -3.9769  -3.8095  -3.7063  -3.6861  -3.6160
    -3.4405  -3.2843  -3.2088  -2.9150  -1.4761   0.5792   2.1753   3.6014
     4.1176

          k = 0.1250 0.3750 0.0000 ( 12609 PWs)   bands (ev):

   -46.2109 -45.2988 -45.2687  -4.7082  -4.6375  -4.5407  -4.4693  -4.2882
    -4.0934  -4.0333  -4.0166  -3.9382  -3.7953  -3.7366  -3.5975  -3.4854
    -3.1841  -3.1285  -2.4460  -1.7239  -0.4690   1.2717   1.6182   2.0954
     3.4798

          k = 0.1250-0.5000 0.0000 ( 12650 PWs)   bands (ev):

   -46.2103 -45.2981 -45.2680  -4.8056  -4.5961  -4.5055  -4.4209  -4.3728
    -4.1733  -4.1029  -4.0024  -3.9088  -3.8163  -3.7626  -3.5598  -3.5480
    -3.1698  -2.9331  -0.8717  -0.3022  -0.2890   0.4558   0.7239   1.3867
     2.9702

          k = 0.1250-0.3750 0.0000 ( 12609 PWs)   bands (ev):

   -46.2109 -45.2988 -45.2687  -4.7082  -4.6375  -4.5407  -4.4693  -4.2882
    -4.0934  -4.0333  -4.0166  -3.9382  -3.7953  -3.7366  -3.5975  -3.4854
    -3.1841  -3.1285  -2.4460  -1.7239  -0.4690   1.2717   1.6182   2.0954
     3.4798

          k = 0.1250-0.2500 0.0000 ( 12575 PWs)   bands (ev):

   -46.2126 -45.3007 -45.2706  -4.7455  -4.6298  -4.5674  -4.4288  -4.1628
    -4.1523  -4.0905  -4.0184  -3.9769  -3.8095  -3.7063  -3.6861  -3.6160
    -3.4405  -3.2843  -3.2088  -2.9150  -1.4761   0.5792   2.1753   3.6014
     4.1178

          k = 0.1250-0.1250 0.0000 ( 12540 PWs)   bands (ev):

   -46.2143 -45.3026 -45.2725  -5.0129  -4.7634  -4.7172  -4.6773  -4.6119
    -4.1684  -4.1564  -4.0596  -4.0155  -3.8702  -3.7125  -3.6083  -3.5585
    -3.4641  -3.2475  -3.2246  -3.0496  -1.9607   0.0014   1.5777   3.1619
     4.1436

          k = 0.2500-0.0000 0.0000 ( 12550 PWs)   bands (ev):

   -46.2133 -45.3015 -45.2713  -4.9955  -4.7945  -4.6594  -4.4372  -4.2666
    -4.1507  -4.1349  -3.9898  -3.8409  -3.7170  -3.6610  -3.6599  -3.5788
    -3.4813  -3.1551  -3.1505  -3.1036  -1.6941   0.3136   1.8883   3.2989
     3.9314

          k = 0.2500 0.1250 0.0000 ( 12575 PWs)   bands (ev):

   -46.2126 -45.3007 -45.2706  -4.7455  -4.6298  -4.5674  -4.4288  -4.1628
    -4.1523  -4.0905  -4.0184  -3.9769  -3.8095  -3.7063  -3.6861  -3.6160
    -3.4405  -3.2843  -3.2088  -2.9150  -1.4761   0.5792   2.1753   3.6014
     4.1179

          k = 0.2500 0.2500 0.0000 ( 12610 PWs)   bands (ev):

   -46.2110 -45.2989 -45.2688  -4.5648  -4.4373  -4.3643  -4.2950  -4.2750
    -4.1650  -4.1224  -4.0727  -3.8980  -3.8398  -3.6824  -3.5810  -3.5715
    -3.4088  -3.3982  -3.1491  -2.3095  -0.8408   1.2743   2.9278   3.8652
     4.4525

          k = 0.2500 0.3750 0.0000 ( 12622 PWs)   bands (ev):

   -46.2092 -45.2970 -45.2669  -4.6918  -4.4842  -4.4633  -4.4328  -4.3572
    -4.2483  -4.0486  -3.9689  -3.8683  -3.8474  -3.6880  -3.6106  -3.4428
    -3.3526  -3.0611  -1.9860  -1.0979   0.3026   2.0382   2.1761   2.9013
     4.0698

          k = 0.2500-0.5000 0.0000 ( 12660 PWs)   bands (ev):

   -46.2086 -45.2963 -45.2662  -4.7932  -4.5558  -4.5081  -4.4319  -4.3425
    -4.3366  -4.0356  -3.9369  -3.9230  -3.8464  -3.7664  -3.5387  -3.4158
    -3.2948  -2.8808  -0.5276   0.2657   0.2959   1.2655   1.5722   2.3729
     3.6633

          k = 0.2500-0.3750 0.0000 ( 12622 PWs)   bands (ev):

   -46.2092 -45.2970 -45.2669  -4.6918  -4.4842  -4.4633  -4.4328  -4.3572
    -4.2483  -4.0486  -3.9689  -3.8683  -3.8474  -3.6880  -3.6106  -3.4428
    -3.3526  -3.0611  -1.9860  -1.0979   0.3026   2.0382   2.1761   2.9014
     4.0700

          k = 0.2500-0.2500 0.0000 ( 12610 PWs)   bands (ev):

   -46.2110 -45.2989 -45.2688  -4.5648  -4.4373  -4.3643  -4.2950  -4.2750
    -4.1650  -4.1224  -4.0727  -3.8980  -3.8398  -3.6824  -3.5810  -3.5715
    -3.4088  -3.3982  -3.1491  -2.3095  -0.8408   1.2743   2.9278   3.8652
     4.4524

          k = 0.2500-0.1250 0.0000 ( 12575 PWs)   bands (ev):

   -46.2126 -45.3007 -45.2706  -4.7455  -4.6298  -4.5674  -4.4288  -4.1628
    -4.1523  -4.0905  -4.0184  -3.9769  -3.8095  -3.7063  -3.6861  -3.6160
    -3.4405  -3.2843  -3.2088  -2.9150  -1.4761   0.5792   2.1753   3.6014
     4.1176

          k = 0.3750-0.0000 0.0000 ( 12594 PWs)   bands (ev):

   -46.2116 -45.2996 -45.2695  -4.8769  -4.7118  -4.6842  -4.5728  -4.2977
    -4.1786  -3.9064  -3.8328  -3.7950  -3.7842  -3.7574  -3.5523  -3.3160
    -3.1731  -3.0821  -2.6155  -1.9505  -0.7597   0.9249   1.4104   1.7664
     3.2696

          k = 0.3750 0.1250 0.0000 ( 12609 PWs)   bands (ev):

   -46.2109 -45.2988 -45.2687  -4.7082  -4.6375  -4.5407  -4.4693  -4.2882
    -4.0934  -4.0333  -4.0166  -3.9382  -3.7953  -3.7366  -3.5975  -3.4854
    -3.1841  -3.1285  -2.4460  -1.7239  -0.4690   1.2717   1.6182   2.0954
     3.4798

          k = 0.3750 0.2500 0.0000 ( 12622 PWs)   bands (ev):

   -46.2092 -45.2970 -45.2669  -4.6918  -4.4842  -4.4633  -4.4328  -4.3572
    -4.2483  -4.0486  -3.9689  -3.8683  -3.8474  -3.6880  -3.6106  -3.4428
    -3.3526  -3.0611  -1.9860  -1.0979   0.3026   2.0382   2.1761   2.9013
     4.0697

          k = 0.3750 0.3750 0.0000 ( 12670 PWs)   bands (ev):

   -46.2077 -45.2952 -45.2652  -4.7667  -4.7206  -4.6864  -4.6504  -4.3569
    -4.2279  -4.2071  -4.1158  -3.6594  -3.6447  -3.6254  -3.3848  -3.3043
    -3.0368  -2.8510  -1.0305   0.0080   1.5118   1.9249   3.1875   3.4116
     5.0165

          k = 0.3750-0.5000 0.0000 ( 12656 PWs)   bands (ev):

   -46.2069 -45.2944 -45.2644  -4.8722  -4.8280  -4.7783  -4.6635  -4.3112
    -4.3082  -4.2202  -4.2025  -3.7215  -3.6327  -3.5933  -3.2070  -3.1523
    -2.9567  -2.6619   0.2292   0.8428   1.2897   2.0699   2.8296   3.5978
     4.7378

          k = 0.3750-0.3750 0.0000 ( 12670 PWs)   bands (ev):

   -46.2077 -45.2952 -45.2652  -4.7667  -4.7206  -4.6864  -4.6504  -4.3569
    -4.2279  -4.2071  -4.1158  -3.6594  -3.6447  -3.6254  -3.3848  -3.3043
    -3.0368  -2.8510  -1.0305   0.0080   1.5118   1.9249   3.1875   3.4116
     4.9151

          k = 0.3750-0.2500 0.0000 ( 12622 PWs)   bands (ev):

   -46.2092 -45.2970 -45.2669  -4.6918  -4.4842  -4.4633  -4.4328  -4.3572
    -4.2483  -4.0486  -3.9689  -3.8683  -3.8474  -3.6880  -3.6106  -3.4428
    -3.3526  -3.0611  -1.9860  -1.0979   0.3026   2.0382   2.1761   2.9013
     4.0697

          k = 0.3750-0.1250 0.0000 ( 12609 PWs)   bands (ev):

   -46.2109 -45.2988 -45.2687  -4.7082  -4.6375  -4.5407  -4.4693  -4.2882
    -4.0934  -4.0333  -4.0166  -3.9382  -3.7953  -3.7366  -3.5975  -3.4854
    -3.1841  -3.1285  -2.4460  -1.7239  -0.4690   1.2717   1.6182   2.0954
     3.4799

          k =-0.5000 0.0000 0.0000 ( 12618 PWs)   bands (ev):

   -46.2109 -45.2988 -45.2687  -4.8360  -4.8110  -4.6424  -4.5410  -4.3834
    -4.1432  -3.9806  -3.9028  -3.8361  -3.7774  -3.7203  -3.5399  -3.3838
    -3.0720  -2.9547  -0.9726  -0.5785  -0.4727   0.0997   0.4008   0.9990
     2.7421

          k =-0.5000 0.1250 0.0000 ( 12650 PWs)   bands (ev):

   -46.2103 -45.2981 -45.2680  -4.8056  -4.5961  -4.5055  -4.4209  -4.3728
    -4.1733  -4.1029  -4.0024  -3.9088  -3.8163  -3.7626  -3.5598  -3.5479
    -3.1698  -2.9331  -0.8717  -0.3022  -0.2890   0.4558   0.7239   1.3867
     2.9702

          k =-0.5000 0.2500 0.0000 ( 12660 PWs)   bands (ev):

   -46.2086 -45.2963 -45.2662  -4.7932  -4.5558  -4.5081  -4.4319  -4.3425
    -4.3366  -4.0356  -3.9369  -3.9230  -3.8464  -3.7664  -3.5387  -3.4158
    -3.2948  -2.8808  -0.5276   0.2657   0.2959   1.2655   1.5722   2.3728
     3.6633

          k =-0.5000 0.3750 0.0000 ( 12656 PWs)   bands (ev):

   -46.2069 -45.2944 -45.2644  -4.8722  -4.8280  -4.7783  -4.6635  -4.3112
    -4.3082  -4.2202  -4.2025  -3.7215  -3.6327  -3.5933  -3.2070  -3.1523
    -2.9567  -2.6619   0.2292   0.8428   1.2897   2.0699   2.8296   3.5978
     4.7379

          k =-0.5000-0.5000 0.0000 ( 12564 PWs)   bands (ev):

   -46.2059 -45.2934 -45.2633  -4.9886  -4.9459  -4.7736  -4.7736  -4.3338
    -4.2974  -4.2974  -4.2534  -3.7022  -3.7022  -3.5484  -2.9430  -2.9159
    -2.9044  -2.4487   1.0620   1.0620   2.4175   2.4176   3.2999   3.9713
     4.2848

     the Fermi energy is     0.4392 ev

!    total energy              =    -297.51009778 Ry
     estimated scf accuracy    <       0.00000064 Ry
     smearing contrib. (-TS)   =      -0.00140273 Ry
     internal energy E=F+TS    =    -297.50869505 Ry

     The total energy is F=E-TS. E is the sum of the following terms:
     one-electron contribution =   -2569.72915981 Ry
     hartree contribution      =    1303.47264741 Ry
     xc contribution           =     -77.82819117 Ry
     ewald contribution        =    1046.67382274 Ry
     DFT-D3 Dispersion         =      -0.09781421 Ry

     convergence has been achieved in  11 iterations

     negative rho (up, down):  1.561E-05 0.000E+00

     Forces acting on atoms (cartesian axes, Ry/au):

     atom    1 type  1   force =     0.00000007    0.00000151   -0.00276784
     atom    2 type  1   force =    -0.00000098   -0.00000080   -0.00280261
     atom    3 type  1   force =    -0.00000087    0.00000076   -0.00017053
     atom    4 type  2   force =     0.00000087   -0.00000082    0.00391549
     atom    5 type  2   force =     0.00000019   -0.00000032    0.00137089
     atom    6 type  2   force =     0.00000072   -0.00000033    0.00045460
     The non-local contrib.  to forces
     atom    1 type  1   force =     0.00000236    0.00000110    0.10660740
     atom    2 type  1   force =    -0.00000412    0.00000079    0.00252195
     atom    3 type  1   force =    -0.00000133   -0.00000085    0.02588821
     atom    4 type  2   force =    -0.00000428   -0.00000443    0.00230588
     atom    5 type  2   force =    -0.00000452   -0.00000449   -0.00101329
     atom    6 type  2   force =    -0.00000755   -0.00000767   -0.05687533
     The ionic contribution  to forces
     atom    1 type  1   force =     0.00000000   -0.00000000   80.45690169
     atom    2 type  1   force =    -0.00000000    0.00000000    7.89267054
     atom    3 type  1   force =     0.00000000   -0.00000000  -66.15170159
     atom    4 type  2   force =    -0.00000000   -0.00000000   12.22598690
     atom    5 type  2   force =    -0.00000000   -0.00000000   -7.89267054
     atom    6 type  2   force =     0.00000000    0.00000000  -26.53118700
     The local contribution  to forces
     atom    1 type  1   force =     0.00000039   -0.00000137  -80.55378529
     atom    2 type  1   force =    -0.00000148    0.00000071   -7.89629717
     atom    3 type  1   force =     0.00000322   -0.00000283   66.11900435
     atom    4 type  2   force =     0.00000411    0.00000414  -12.22188476
     atom    5 type  2   force =     0.00000380    0.00000408    7.89357832
     atom    6 type  2   force =     0.00000659    0.00000694   26.58589280
     The core correction contribution to forces
     atom    1 type  1   force =     0.00000013   -0.00000011   -0.00657958
     atom    2 type  1   force =    -0.00000011    0.00000009   -0.00029867
     atom    3 type  1   force =     0.00000019   -0.00000023   -0.00022663
     atom    4 type  2   force =     0.00000000    0.00000000    0.00000000
     atom    5 type  2   force =     0.00000000    0.00000000    0.00000000
     atom    6 type  2   force =     0.00000000    0.00000000    0.00000000
     The Hubbard contrib.    to forces
     atom    1 type  1   force =     0.00000000    0.00000000    0.00000000
     atom    2 type  1   force =     0.00000000    0.00000000    0.00000000
     atom    3 type  1   force =     0.00000000    0.00000000    0.00000000
     atom    4 type  2   force =     0.00000000    0.00000000    0.00000000
     atom    5 type  2   force =     0.00000000    0.00000000    0.00000000
     atom    6 type  2   force =     0.00000000    0.00000000    0.00000000
     The SCF correction term to forces
     atom    1 type  1   force =    -0.00000357    0.00000194   -0.00156714
     atom    2 type  1   force =     0.00000000   -0.00000000   -0.00000000
     atom    3 type  1   force =    -0.00000000    0.00000000    0.00000000
     atom    4 type  2   force =     0.00000026   -0.00000047   -0.00049827
     atom    5 type  2   force =     0.00000000    0.00000000    0.00000000
     atom    6 type  2   force =     0.00000000    0.00000000    0.00000000

     DFT-D3 dispersion contribution to forces:
     atom    1 type  1   force =     0.00000000    0.00000000   -0.00425055
     atom    2 type  1   force =     0.00000000    0.00000000   -0.00110527
     atom    3 type  1   force =    -0.00000000    0.00000000    0.00398572
     atom    4 type  2   force =     0.00000000   -0.00000000   -0.00189990
     atom    5 type  2   force =    -0.00000000   -0.00000000    0.00110527
     atom    6 type  2   force =    -0.00000000   -0.00000000    0.00216473

     Total force =     0.004795     Total SCF correction =     0.001644
     SCF correction compared to forces is large: reduce conv_thr to get better values


     Computing stress (Cartesian axis) and pressure


     negative rho (up, down):  1.561E-05 0.000E+00
          total   stress  (Ry/bohr**3)                   (kbar)     P=      -11.81
  -0.00009481  -0.00000000   0.00000000          -13.95       -0.00        0.00
  -0.00000000  -0.00009481  -0.00000000           -0.00      -13.95       -0.00
   0.00000000  -0.00000000  -0.00005128            0.00       -0.00       -7.54


     BFGS Geometry Optimization
     Energy error            =      0.0E+00 Ry
     Gradient error          =      3.9E-03 Ry/Bohr

     number of scf cycles    =   1
     number of bfgs steps    =   0

     energy             new  =    -297.5100977809 Ry

     new trust radius        =       0.0039154936 bohr
     new conv_thr            =       0.0000010000 Ry


ATOMIC_POSITIONS (angstrom)
Ag            0.7806851220        0.7806858810       17.8053861463
Ag            0.7806850825        0.7806850825       14.6841104950    0   0   0
Ag            0.7806850825        0.7806850825       11.5613701650    0   0   0
Li            2.3420557063        2.3420548147       16.2475526499
Li            2.3420552475        2.3420552475       13.1227403300    0   0   0
Li            2.3420552475        2.3420552475       10.0000000000    0   0   0



     Writing config-only to output data dir ./LiAg_100/LiAg_100.save/
     NEW-OLD atomic charge density approx. for the potential

     negative rho (up, down):  1.564E-05 0.000E+00

     total cpu time spent up to now is        7.4 secs

     per-process dynamical memory:   198.4 Mb

     Self-consistent Calculation

     iteration #  1     ecut=    55.00 Ry     beta= 0.30
     Davidson diagonalization with overlap
     ethr =  1.00E-06,  avg # of iterations =  3.0

     negative rho (up, down):  1.564E-05 0.000E+00

     total cpu time spent up to now is        7.7 secs

     total energy              =    -297.51009552 Ry
     estimated scf accuracy    <       0.00005897 Ry

     iteration #  2     ecut=    55.00 Ry     beta= 0.30
     Davidson diagonalization with overlap
     ethr =  1.40E-07,  avg # of iterations =  2.5

     negative rho (up, down):  1.567E-05 0.000E+00

     total cpu time spent up to now is        7.8 secs

     total energy              =    -297.51006072 Ry
     estimated scf accuracy    <       0.00115009 Ry

     iteration #  3     ecut=    55.00 Ry     beta= 0.30
     Davidson diagonalization with overlap
     ethr =  1.40E-07,  avg # of iterations =  2.2

     negative rho (up, down):  1.566E-05 0.000E+00

     total cpu time spent up to now is        8.0 secs

     total energy              =    -297.51011417 Ry
     estimated scf accuracy    <       0.00010740 Ry

     iteration #  4     ecut=    55.00 Ry     beta= 0.30
     Davidson diagonalization with overlap
     ethr =  1.40E-07,  avg # of iterations =  1.1

     negative rho (up, down):  1.563E-05 0.000E+00

     total cpu time spent up to now is        8.2 secs

     End of self-consistent calculation

          k = 0.0000 0.0000 0.0000 ( 12493 PWs)   bands (ev):

   -46.2172 -45.3054 -45.2742  -5.4793  -5.1592  -4.9018  -4.8028  -4.7764
    -4.4748  -4.3401  -3.9030  -3.9030  -3.8163  -3.6276  -3.6276  -3.4358
    -3.3911  -3.1462  -3.1462  -2.8983  -2.2561  -0.4277   1.1133   2.7060
     3.6842

          k = 0.0000 0.1250 0.0000 ( 12528 PWs)   bands (ev):

   -46.2165 -45.3046 -45.2734  -5.2681  -4.9834  -4.7879  -4.7294  -4.6721
    -4.3691  -4.1904  -4.0659  -3.8854  -3.8560  -3.6166  -3.6015  -3.5211
    -3.4706  -3.2546  -3.1361  -2.9737  -2.1189  -0.2214   1.3376   2.9252
     3.9129

          k = 0.0000 0.2500 0.0000 ( 12550 PWs)   bands (ev):

   -46.2147 -45.3026 -45.2714  -4.9975  -4.7965  -4.6623  -4.4398  -4.2708
    -4.1532  -4.1373  -3.9918  -3.8432  -3.7189  -3.6646  -3.6619  -3.5812
    -3.4840  -3.1585  -3.1546  -3.1070  -1.6955   0.3123   1.8875   3.2986
     3.9300

          k = 0.0000 0.3750 0.0000 ( 12594 PWs)   bands (ev):

   -46.2130 -45.3007 -45.2696  -4.8790  -4.7143  -4.6862  -4.5758  -4.3003
    -4.1829  -3.9084  -3.8347  -3.7974  -3.7872  -3.7603  -3.5547  -3.3202
    -3.1756  -3.0854  -2.6175  -1.9534  -0.7618   0.9232   1.4083   1.7642
     3.2696

          k = 0.0000-0.5000 0.0000 ( 12618 PWs)   bands (ev):

   -46.2123 -45.2999 -45.2688  -4.8380  -4.8135  -4.6444  -4.5441  -4.3862
    -4.1475  -3.9826  -3.9047  -3.8389  -3.7798  -3.7233  -3.5424  -3.3881
    -3.0753  -2.9570  -0.9747  -0.5804  -0.4757   0.0977   0.3981   0.9963
     2.7418

          k = 0.1250-0.0000 0.0000 ( 12528 PWs)   bands (ev):

   -46.2165 -45.3046 -45.2734  -5.2681  -4.9834  -4.7879  -4.7294  -4.6721
    -4.3691  -4.1904  -4.0659  -3.8854  -3.8560  -3.6166  -3.6015  -3.5211
    -3.4706  -3.2546  -3.1361  -2.9737  -2.1189  -0.2214   1.3376   2.9252
     3.9129

          k = 0.1250 0.1250 0.0000 ( 12540 PWs)   bands (ev):

   -46.2157 -45.3038 -45.2726  -5.0151  -4.7654  -4.7192  -4.6798  -4.6140
    -4.1721  -4.1604  -4.0630  -4.0180  -3.8727  -3.7150  -3.6103  -3.5606
    -3.4667  -3.2507  -3.2279  -3.0536  -1.9621   0.0001   1.5771   3.1626
     4.1473

          k = 0.1250 0.2500 0.0000 ( 12575 PWs)   bands (ev):

   -46.2140 -45.3019 -45.2707  -4.7478  -4.6324  -4.5695  -4.4313  -4.1654
    -4.1546  -4.0942  -4.0210  -3.9793  -3.8118  -3.7084  -3.6884  -3.6194
    -3.4433  -3.2880  -3.2121  -2.9185  -1.4777   0.5780   2.1745   3.6011
     4.1161

          k = 0.1250 0.3750 0.0000 ( 12609 PWs)   bands (ev):

   -46.2123 -45.3000 -45.2688  -4.7107  -4.6397  -4.5436  -4.4713  -4.2909
    -4.0954  -4.0364  -4.0190  -3.9414  -3.7980  -3.7395  -3.6001  -3.4897
    -3.1873  -3.1310  -2.4480  -1.7269  -0.4712   1.2702   1.6162   2.0932
     3.4797

          k = 0.1250-0.5000 0.0000 ( 12650 PWs)   bands (ev):

   -46.2117 -45.2993 -45.2681  -4.8082  -4.5982  -4.5084  -4.4229  -4.3755
    -4.1753  -4.1047  -4.0057  -3.9121  -3.8192  -3.7653  -3.5641  -3.5507
    -3.1730  -2.9354  -0.8738  -0.3041  -0.2920   0.4537   0.7211   1.3840
     2.9700

          k = 0.1250-0.3750 0.0000 ( 12609 PWs)   bands (ev):

   -46.2123 -45.3000 -45.2688  -4.7107  -4.6397  -4.5436  -4.4713  -4.2909
    -4.0954  -4.0364  -4.0190  -3.9414  -3.7980  -3.7395  -3.6001  -3.4897
    -3.1873  -3.1310  -2.4480  -1.7269  -0.4712   1.2701   1.6162   2.0932
     3.4797

          k = 0.1250-0.2500 0.0000 ( 12575 PWs)   bands (ev):

   -46.2140 -45.3019 -45.2707  -4.7478  -4.6324  -4.5695  -4.4313  -4.1654
    -4.1546  -4.0942  -4.0210  -3.9793  -3.8118  -3.7084  -3.6884  -3.6194
    -3.4433  -3.2880  -3.2121  -2.9185  -1.4777   0.5780   2.1745   3.6011
     4.1162

          k = 0.1250-0.1250 0.0000 ( 12540 PWs)   bands (ev):

   -46.2157 -45.3038 -45.2726  -5.0151  -4.7654  -4.7192  -4.6798  -4.6140
    -4.1721  -4.1604  -4.0630  -4.0180  -3.8727  -3.7150  -3.6103  -3.5606
    -3.4667  -3.2507  -3.2279  -3.0536  -1.9621   0.0001   1.5771   3.1626
     4.1473

          k = 0.2500-0.0000 0.0000 ( 12550 PWs)   bands (ev):

   -46.2147 -45.3026 -45.2714  -4.9975  -4.7965  -4.6623  -4.4398  -4.2708
    -4.1532  -4.1373  -3.9918  -3.8432  -3.7189  -3.6646  -3.6619  -3.5812
    -3.4840  -3.1585  -3.1546  -3.1070  -1.6955   0.3123   1.8875   3.2986
     3.9299

          k = 0.2500 0.1250 0.0000 ( 12575 PWs)   bands (ev):

   -46.2140 -45.3019 -45.2707  -4.7478  -4.6324  -4.5695  -4.4313  -4.1654
    -4.1546  -4.0942  -4.0210  -3.9793  -3.8118  -3.7084  -3.6884  -3.6194
    -3.4433  -3.2880  -3.2121  -2.9185  -1.4777   0.5780   2.1745   3.6011
     4.1162

          k = 0.2500 0.2500 0.0000 ( 12610 PWs)   bands (ev):

   -46.2124 -45.3000 -45.2689  -4.5677  -4.4399  -4.3667  -4.2972  -4.2770
    -4.1672  -4.1246  -4.0751  -3.9004  -3.8426  -3.6861  -3.5847  -3.5742
    -3.4120  -3.4011  -3.1514  -2.3129  -0.8426   1.2731   2.9271   3.8634
     4.4525

          k = 0.2500 0.3750 0.0000 ( 12622 PWs)   bands (ev):

   -46.2106 -45.2981 -45.2670  -4.6943  -4.4862  -4.4662  -4.4347  -4.3599
    -4.2508  -4.0512  -3.9710  -3.8707  -3.8515  -3.6911  -3.6134  -3.4462
    -3.3559  -3.0637  -1.9879  -1.1010   0.3002   2.0363   2.1748   2.8989
     4.0694

          k = 0.2500-0.5000 0.0000 ( 12660 PWs)   bands (ev):

   -46.2100 -45.2974 -45.2663  -4.7957  -4.5578  -4.5100  -4.4347  -4.3453
    -4.3393  -4.0381  -3.9391  -3.9272  -3.8487  -3.7695  -3.5417  -3.4190
    -3.2981  -2.8833  -0.5296   0.2626   0.2941   1.2632   1.5692   2.3700
     3.6630

          k = 0.2500-0.3750 0.0000 ( 12622 PWs)   bands (ev):

   -46.2106 -45.2981 -45.2670  -4.6943  -4.4862  -4.4662  -4.4347  -4.3599
    -4.2508  -4.0512  -3.9710  -3.8707  -3.8515  -3.6911  -3.6134  -3.4462
    -3.3559  -3.0637  -1.9879  -1.1010   0.3002   2.0363   2.1748   2.8989
     4.0695

          k = 0.2500-0.2500 0.0000 ( 12610 PWs)   bands (ev):

   -46.2124 -45.3000 -45.2689  -4.5677  -4.4399  -4.3667  -4.2972  -4.2770
    -4.1672  -4.1246  -4.0751  -3.9004  -3.8426  -3.6861  -3.5847  -3.5742
    -3.4120  -3.4011  -3.1514  -2.3129  -0.8426   1.2731   2.9271   3.8634
     4.4525

          k = 0.2500-0.1250 0.0000 ( 12575 PWs)   bands (ev):

   -46.2140 -45.3019 -45.2707  -4.7478  -4.6324  -4.5695  -4.4313  -4.1654
    -4.1546  -4.0942  -4.0210  -3.9793  -3.8118  -3.7084  -3.6884  -3.6194
    -3.4433  -3.2880  -3.2121  -2.9185  -1.4777   0.5780   2.1745   3.6011
     4.1161

          k = 0.3750-0.0000 0.0000 ( 12594 PWs)   bands (ev):

   -46.2130 -45.3007 -45.2696  -4.8790  -4.7143  -4.6862  -4.5758  -4.3003
    -4.1829  -3.9084  -3.8347  -3.7974  -3.7872  -3.7603  -3.5547  -3.3202
    -3.1756  -3.0854  -2.6175  -1.9534  -0.7618   0.9232   1.4083   1.7642
     3.2696

          k = 0.3750 0.1250 0.0000 ( 12609 PWs)   bands (ev):

   -46.2123 -45.3000 -45.2688  -4.7107  -4.6397  -4.5436  -4.4713  -4.2909
    -4.0954  -4.0364  -4.0190  -3.9414  -3.7980  -3.7395  -3.6001  -3.4897
    -3.1873  -3.1310  -2.4480  -1.7269  -0.4712   1.2701   1.6162   2.0932
     3.4797

          k = 0.3750 0.2500 0.0000 ( 12622 PWs)   bands (ev):

   -46.2106 -45.2981 -45.2670  -4.6943  -4.4862  -4.4662  -4.4347  -4.3599
    -4.2508  -4.0512  -3.9710  -3.8707  -3.8515  -3.6911  -3.6134  -3.4462
    -3.3559  -3.0637  -1.9879  -1.1010   0.3002   2.0363   2.1748   2.8989
     4.0694

          k = 0.3750 0.3750 0.0000 ( 12670 PWs)   bands (ev):

   -46.2091 -45.2964 -45.2653  -4.7687  -4.7223  -4.6888  -4.6528  -4.3601
    -4.2305  -4.2098  -4.1201  -3.6625  -3.6479  -3.6285  -3.3868  -3.3065
    -3.0392  -2.8547  -1.0323   0.0049   1.5091   1.9232   3.1848   3.4105
     5.0127

          k = 0.3750-0.5000 0.0000 ( 12656 PWs)   bands (ev):

   -46.2083 -45.2956 -45.2645  -4.8741  -4.8297  -4.7808  -4.6660  -4.3139
    -4.3113  -4.2245  -4.2051  -3.7247  -3.6359  -3.5964  -3.2090  -3.1545
    -2.9591  -2.6654   0.2273   0.8411   1.2866   2.0672   2.8266   3.5946
     4.7371

          k = 0.3750-0.3750 0.0000 ( 12670 PWs)   bands (ev):

   -46.2091 -45.2964 -45.2653  -4.7687  -4.7223  -4.6888  -4.6528  -4.3601
    -4.2305  -4.2098  -4.1201  -3.6625  -3.6479  -3.6285  -3.3868  -3.3065
    -3.0392  -2.8547  -1.0323   0.0049   1.5091   1.9232   3.1848   3.4105
     4.9139

          k = 0.3750-0.2500 0.0000 ( 12622 PWs)   bands (ev):

   -46.2106 -45.2981 -45.2670  -4.6943  -4.4862  -4.4662  -4.4347  -4.3599
    -4.2508  -4.0512  -3.9710  -3.8707  -3.8515  -3.6911  -3.6134  -3.4462
    -3.3559  -3.0637  -1.9879  -1.1010   0.3002   2.0363   2.1748   2.8989
     4.0694

          k = 0.3750-0.1250 0.0000 ( 12609 PWs)   bands (ev):

   -46.2123 -45.3000 -45.2688  -4.7107  -4.6397  -4.5436  -4.4713  -4.2909
    -4.0954  -4.0364  -4.0190  -3.9414  -3.7980  -3.7395  -3.6001  -3.4897
    -3.1873  -3.1310  -2.4480  -1.7269  -0.4712   1.2701   1.6162   2.0932
     3.4797

          k =-0.5000 0.0000 0.0000 ( 12618 PWs)   bands (ev):

   -46.2123 -45.2999 -45.2688  -4.8380  -4.8135  -4.6444  -4.5441  -4.3862
    -4.1475  -3.9826  -3.9047  -3.8389  -3.7798  -3.7233  -3.5424  -3.3881
    -3.0753  -2.9570  -0.9747  -0.5804  -0.4757   0.0977   0.3981   0.9963
     2.7418

          k =-0.5000 0.1250 0.0000 ( 12650 PWs)   bands (ev):

   -46.2117 -45.2993 -45.2681  -4.8082  -4.5982  -4.5084  -4.4229  -4.3755
    -4.1753  -4.1047  -4.0057  -3.9121  -3.8192  -3.7653  -3.5641  -3.5507
    -3.1730  -2.9354  -0.8738  -0.3041  -0.2920   0.4537   0.7211   1.3840
     2.9700

          k =-0.5000 0.2500 0.0000 ( 12660 PWs)   bands (ev):

   -46.2100 -45.2974 -45.2663  -4.7957  -4.5578  -4.5100  -4.4347  -4.3453
    -4.3393  -4.0381  -3.9391  -3.9272  -3.8487  -3.7695  -3.5417  -3.4190
    -3.2981  -2.8833  -0.5296   0.2626   0.2941   1.2632   1.5692   2.3700
     3.6630

          k =-0.5000 0.3750 0.0000 ( 12656 PWs)   bands (ev):

   -46.2083 -45.2956 -45.2645  -4.8741  -4.8297  -4.7808  -4.6660  -4.3139
    -4.3113  -4.2245  -4.2051  -3.7247  -3.6359  -3.5964  -3.2090  -3.1545
    -2.9591  -2.6654   0.2273   0.8411   1.2866   2.0672   2.8265   3.5946
     4.7372

          k =-0.5000-0.5000 0.0000 ( 12564 PWs)   bands (ev):

   -46.2074 -45.2945 -45.2634  -4.9906  -4.9476  -4.7761  -4.7761  -4.3382
    -4.3001  -4.3001  -4.2565  -3.7054  -3.7054  -3.5515  -2.9449  -2.9182
    -2.9068  -2.4522   1.0604   1.0604   2.4146   2.4146   3.2975   3.9681
     4.2810

     the Fermi energy is     0.4372 ev

!    total energy              =    -297.51011995 Ry
     estimated scf accuracy    <       0.00000009 Ry
     smearing contrib. (-TS)   =      -0.00139957 Ry
     internal energy E=F+TS    =    -297.50872038 Ry

     The total energy is F=E-TS. E is the sum of the following terms:
     one-electron contribution =   -2570.10439728 Ry
     hartree contribution      =    1303.67342019 Ry
     xc contribution           =     -77.82856519 Ry
     ewald contribution        =    1046.84864047 Ry
     DFT-D3 Dispersion         =      -0.09781856 Ry

     convergence has been achieved in   4 iterations

     negative rho (up, down):  1.563E-05 0.000E+00

     Forces acting on atoms (cartesian axes, Ry/au):

     atom    1 type  1   force =    -0.00000360   -0.00000103   -0.00210587
     atom    2 type  1   force =     0.00000116    0.00000016   -0.00228472
     atom    3 type  1   force =     0.00000628   -0.00000085   -0.00056685
     atom    4 type  2   force =    -0.00000181    0.00000066    0.00351166
     atom    5 type  2   force =    -0.00000153    0.00000036    0.00121643
     atom    6 type  2   force =    -0.00000051    0.00000070    0.00022935
     The non-local contrib.  to forces
     atom    1 type  1   force =    -0.00000123   -0.00000334    0.10704493
     atom    2 type  1   force =     0.00000332    0.00000098    0.00298520
     atom    3 type  1   force =     0.00001141   -0.00000615    0.02602049
     atom    4 type  2   force =    -0.00000453   -0.00000434    0.00216964
     atom    5 type  2   force =    -0.00000511   -0.00000502   -0.00107019
     atom    6 type  2   force =    -0.00000624   -0.00000750   -0.05701769
     The ionic contribution  to forces
     atom    1 type  1   force =     0.00000055   -0.00000128   80.46371058
     atom    2 type  1   force =     0.00000057   -0.00000084    7.88353259
     atom    3 type  1   force =     0.00000000   -0.00000000  -66.15454414
     atom    4 type  2   force =    -0.00000110    0.00000211   12.23257623
     atom    5 type  2   force =    -0.00000001    0.00000001   -7.89331797
     atom    6 type  2   force =    -0.00000000    0.00000000  -26.53195729
     The local contribution  to forces
     atom    1 type  1   force =     0.00000432    0.00000443  -80.56238830
     atom    2 type  1   force =    -0.00000066   -0.00000324   -7.88697289
     atom    3 type  1   force =    -0.00000955    0.00001195   66.12402267
     atom    4 type  2   force =     0.00000557    0.00000108  -12.22882837
     atom    5 type  2   force =     0.00000637    0.00000427    7.89469332
     atom    6 type  2   force =     0.00000621    0.00000624   26.58731268
     The core correction contribution to forces
     atom    1 type  1   force =     0.00000028    0.00000017   -0.00663492
     atom    2 type  1   force =    -0.00000008   -0.00000016   -0.00030861
     atom    3 type  1   force =    -0.00000041    0.00000032   -0.00021267
     atom    4 type  2   force =     0.00000000    0.00000000    0.00000000
     atom    5 type  2   force =     0.00000000    0.00000000    0.00000000
     atom    6 type  2   force =     0.00000000    0.00000000    0.00000000
     The Hubbard contrib.    to forces
     atom    1 type  1   force =     0.00000000    0.00000000    0.00000000
     atom    2 type  1   force =     0.00000000    0.00000000    0.00000000
     atom    3 type  1   force =     0.00000000    0.00000000    0.00000000
     atom    4 type  2   force =     0.00000000    0.00000000    0.00000000
     atom    5 type  2   force =     0.00000000    0.00000000    0.00000000
     atom    6 type  2   force =     0.00000000    0.00000000    0.00000000
     The SCF correction term to forces
     atom    1 type  1   force =    -0.00000574   -0.00000211    0.00064088
     atom    2 type  1   force =    -0.00000000    0.00000000   -0.00000000
     atom    3 type  1   force =     0.00000000   -0.00000000    0.00000000
     atom    4 type  2   force =     0.00000003    0.00000072   -0.00029317
     atom    5 type  2   force =    -0.00000000   -0.00000000    0.00000000
     atom    6 type  2   force =     0.00000000    0.00000000   -0.00000000

     DFT-D3 dispersion contribution to forces:
     atom    1 type  1   force =    -0.00000000    0.00000000   -0.00426039
     atom    2 type  1   force =    -0.00000000   -0.00000000   -0.00110035
     atom    3 type  1   force =     0.00000000   -0.00000000    0.00398536
     atom    4 type  2   force =     0.00000000   -0.00000000   -0.00189401
     atom    5 type  2   force =    -0.00000000    0.00000000    0.00110489
     atom    6 type  2   force =     0.00000000   -0.00000000    0.00216450

     Total force =     0.004095     Total SCF correction =     0.000705
     SCF correction compared to forces is large: reduce conv_thr to get better values


     Computing stress (Cartesian axis) and pressure


     negative rho (up, down):  1.563E-05 0.000E+00
          total   stress  (Ry/bohr**3)                   (kbar)     P=      -11.32
  -0.00009139  -0.00000000   0.00000000          -13.44       -0.00        0.00
  -0.00000000  -0.00009139   0.00000001           -0.00      -13.44        0.00
   0.00000000   0.00000001  -0.00004800            0.00        0.00       -7.06

     Energy error            =      2.2E-05 Ry
     Gradient error          =      3.5E-03 Ry/Bohr

     number of scf cycles    =   2
     number of bfgs steps    =   1

     energy             old  =    -297.5100977809 Ry
     energy             new  =    -297.5101199503 Ry

     CASE: energy            _new < energy            _old


     WARNING: bfgs curvature condition failed, Theta= 0.939
     new trust radius        =       0.0043070429 bohr
     new conv_thr            =       0.0000000100 Ry


ATOMIC_POSITIONS (angstrom)
Ag            0.7806830016        0.7806853538       17.8039974501
Ag            0.7806850825        0.7806850825       14.6841104950    0   0   0
Ag            0.7806850825        0.7806850825       11.5613701650    0   0   0
Li            2.3420546834        2.3420551622       16.2498318386
Li            2.3420552475        2.3420552475       13.1227403300    0   0   0
Li            2.3420552475        2.3420552475       10.0000000000    0   0   0



     Writing config-only to output data dir ./LiAg_100/LiAg_100.save/
     NEW-OLD atomic charge density approx. for the potential

     negative rho (up, down):  1.567E-05 0.000E+00

     total cpu time spent up to now is        8.9 secs

     per-process dynamical memory:   202.9 Mb

     Self-consistent Calculation

     iteration #  1     ecut=    55.00 Ry     beta= 0.30
     Davidson diagonalization with overlap
     ethr =  1.00E-06,  avg # of iterations =  3.0

     Threshold (ethr) on eigenvalues was too large:
     Diagonalizing with lowered threshold

     Davidson diagonalization with overlap
     ethr =  3.39E-09,  avg # of iterations =  4.4

     negative rho (up, down):  1.566E-05 0.000E+00

     total cpu time spent up to now is        9.4 secs

     total energy              =    -297.51014070 Ry
     estimated scf accuracy    <       0.00000164 Ry

     iteration #  2     ecut=    55.00 Ry     beta= 0.30
     Davidson diagonalization with overlap
     ethr =  3.90E-09,  avg # of iterations =  2.0

     negative rho (up, down):  1.565E-05 0.000E+00

     total cpu time spent up to now is        9.6 secs

     total energy              =    -297.51013968 Ry
     estimated scf accuracy    <       0.00003394 Ry

     iteration #  3     ecut=    55.00 Ry     beta= 0.30
     Davidson diagonalization with overlap
     ethr =  3.90E-09,  avg # of iterations =  1.7

     negative rho (up, down):  1.565E-05 0.000E+00

     total cpu time spent up to now is        9.7 secs

     total energy              =    -297.51014117 Ry
     estimated scf accuracy    <       0.00000157 Ry

     iteration #  4     ecut=    55.00 Ry     beta= 0.30
     Davidson diagonalization with overlap
     ethr =  3.74E-09,  avg # of iterations =  1.1

     negative rho (up, down):  1.564E-05 0.000E+00

     total cpu time spent up to now is        9.9 secs

     total energy              =    -297.51014128 Ry
     estimated scf accuracy    <       0.00000007 Ry

     iteration #  5     ecut=    55.00 Ry     beta= 0.30
     Davidson diagonalization with overlap
     ethr =  1.71E-10,  avg # of iterations =  3.8

     negative rho (up, down):  1.563E-05 0.000E+00

     total cpu time spent up to now is       10.0 secs

     End of self-consistent calculation

          k = 0.0000 0.0000 0.0000 ( 12493 PWs)   bands (ev):

   -46.2168 -45.3047 -45.2729  -5.4784  -5.1582  -4.9009  -4.8015  -4.7753
    -4.4767  -4.3418  -3.9020  -3.9020  -3.8166  -3.6267  -3.6267  -3.4353
    -3.3893  -3.1474  -3.1474  -2.9002  -2.2549  -0.4274   1.1141   2.7082
     3.6840

          k = 0.0000 0.1250 0.0000 ( 12528 PWs)   bands (ev):

   -46.2161 -45.3040 -45.2721  -5.2672  -4.9824  -4.7869  -4.7285  -4.6707
    -4.3710  -4.1918  -4.0656  -3.8844  -3.8558  -3.6157  -3.6009  -3.5206
    -3.4688  -3.2557  -3.1373  -2.9756  -2.1177  -0.2210   1.3382   2.9272
     3.9128

          k = 0.0000 0.2500 0.0000 ( 12550 PWs)   bands (ev):

   -46.2143 -45.3020 -45.2701  -4.9965  -4.7955  -4.6614  -4.4388  -4.2726
    -4.1525  -4.1371  -3.9905  -3.8422  -3.7183  -3.6660  -3.6602  -3.5803
    -3.4842  -3.1591  -3.1566  -3.1082  -1.6944   0.3128   1.8880   3.3001
     3.9304

          k = 0.0000 0.3750 0.0000 ( 12594 PWs)   bands (ev):

   -46.2126 -45.3001 -45.2682  -4.8779  -4.7134  -4.6851  -4.5751  -4.2999
    -4.1849  -3.9076  -3.8331  -3.7964  -3.7873  -3.7607  -3.5538  -3.3223
    -3.1753  -3.0866  -2.6167  -1.9536  -0.7614   0.9239   1.4092   1.7648
     3.2698

          k = 0.0000-0.5000 0.0000 ( 12618 PWs)   bands (ev):

   -46.2119 -45.2993 -45.2675  -4.8369  -4.8126  -4.6433  -4.5433  -4.3858
    -4.1495  -3.9818  -3.9030  -3.8393  -3.7788  -3.7237  -3.5414  -3.3903
    -3.0765  -2.9566  -0.9736  -0.5796  -0.4758   0.0983   0.3981   0.9964
     2.7433

          k = 0.1250-0.0000 0.0000 ( 12528 PWs)   bands (ev):

   -46.2161 -45.3040 -45.2721  -5.2672  -4.9824  -4.7869  -4.7285  -4.6707
    -4.3710  -4.1918  -4.0656  -3.8844  -3.8558  -3.6157  -3.6009  -3.5206
    -3.4688  -3.2557  -3.1373  -2.9756  -2.1177  -0.2210   1.3382   2.9272
     3.9128

          k = 0.1250 0.1250 0.0000 ( 12540 PWs)   bands (ev):

   -46.2154 -45.3031 -45.2713  -5.0143  -4.7648  -4.7183  -4.6783  -4.6127
    -4.1727  -4.1620  -4.0636  -4.0171  -3.8724  -3.7142  -3.6098  -3.5589
    -3.4660  -3.2520  -3.2290  -3.0556  -1.9608   0.0006   1.5777   3.1645
     4.1472

          k = 0.1250 0.2500 0.0000 ( 12575 PWs)   bands (ev):

   -46.2137 -45.3012 -45.2694  -4.7469  -4.6319  -4.5680  -4.4304  -4.1647
    -4.1541  -4.0952  -4.0206  -3.9785  -3.8116  -3.7073  -3.6872  -3.6204
    -3.4438  -3.2894  -3.2132  -2.9193  -1.4766   0.5785   2.1751   3.6026
     4.1167

          k = 0.1250 0.3750 0.0000 ( 12609 PWs)   bands (ev):

   -46.2120 -45.2993 -45.2675  -4.7098  -4.6387  -4.5431  -4.4700  -4.2905
    -4.0947  -4.0363  -4.0179  -3.9418  -3.7979  -3.7399  -3.5995  -3.4918
    -3.1884  -3.1308  -2.4471  -1.7271  -0.4708   1.2708   1.6172   2.0937
     3.4800

          k = 0.1250-0.5000 0.0000 ( 12650 PWs)   bands (ev):

   -46.2113 -45.2986 -45.2668  -4.8073  -4.5972  -4.5078  -4.4216  -4.3751
    -4.1745  -4.1030  -4.0059  -3.9130  -3.8196  -3.7651  -3.5663  -3.5502
    -3.1742  -2.9350  -0.8727  -0.3032  -0.2922   0.4543   0.7210   1.3841
     2.9716

          k = 0.1250-0.3750 0.0000 ( 12609 PWs)   bands (ev):

   -46.2120 -45.2993 -45.2675  -4.7098  -4.6387  -4.5431  -4.4700  -4.2905
    -4.0947  -4.0363  -4.0179  -3.9418  -3.7979  -3.7399  -3.5995  -3.4918
    -3.1884  -3.1308  -2.4471  -1.7271  -0.4708   1.2708   1.6172   2.0937
     3.4800

          k = 0.1250-0.2500 0.0000 ( 12575 PWs)   bands (ev):

   -46.2137 -45.3012 -45.2694  -4.7469  -4.6319  -4.5680  -4.4304  -4.1647
    -4.1541  -4.0952  -4.0206  -3.9785  -3.8116  -3.7073  -3.6872  -3.6204
    -3.4438  -3.2894  -3.2132  -2.9193  -1.4766   0.5785   2.1751   3.6026
     4.1168

          k = 0.1250-0.1250 0.0000 ( 12540 PWs)   bands (ev):

   -46.2154 -45.3031 -45.2713  -5.0143  -4.7648  -4.7183  -4.6783  -4.6127
    -4.1727  -4.1620  -4.0636  -4.0171  -3.8724  -3.7142  -3.6098  -3.5589
    -3.4660  -3.2520  -3.2290  -3.0556  -1.9608   0.0006   1.5777   3.1645
     4.1472

          k = 0.2500-0.0000 0.0000 ( 12550 PWs)   bands (ev):

   -46.2143 -45.3020 -45.2701  -4.9965  -4.7955  -4.6614  -4.4388  -4.2726
    -4.1525  -4.1371  -3.9905  -3.8422  -3.7183  -3.6660  -3.6602  -3.5803
    -3.4842  -3.1591  -3.1566  -3.1082  -1.6944   0.3128   1.8880   3.3001
     3.9303

          k = 0.2500 0.1250 0.0000 ( 12575 PWs)   bands (ev):

   -46.2137 -45.3012 -45.2694  -4.7469  -4.6319  -4.5680  -4.4304  -4.1647
    -4.1541  -4.0952  -4.0206  -3.9785  -3.8116  -3.7073  -3.6872  -3.6204
    -3.4438  -3.2894  -3.2132  -2.9193  -1.4766   0.5785   2.1751   3.6026
     4.1168

          k = 0.2500 0.2500 0.0000 ( 12610 PWs)   bands (ev):

   -46.2120 -45.2994 -45.2676  -4.5670  -4.4390  -4.3658  -4.2969  -4.2755
    -4.1661  -4.1239  -4.0744  -3.8996  -3.8424  -3.6875  -3.5862  -3.5742
    -3.4130  -3.4017  -3.1510  -2.3134  -0.8419   1.2738   2.9278   3.8647
     4.4538

          k = 0.2500 0.3750 0.0000 ( 12622 PWs)   bands (ev):

   -46.2103 -45.2975 -45.2657  -4.6933  -4.4856  -4.4656  -4.4330  -4.3591
    -4.2503  -4.0504  -3.9705  -3.8698  -3.8533  -3.6918  -3.6135  -3.4471
    -3.3569  -3.0638  -1.9868  -1.1012   0.3004   2.0375   2.1756   2.8992
     4.0698

          k = 0.2500-0.5000 0.0000 ( 12660 PWs)   bands (ev):

   -46.2097 -45.2968 -45.2650  -4.7947  -4.5573  -4.5081  -4.4339  -4.3445
    -4.3388  -4.0374  -3.9388  -3.9293  -3.8474  -3.7701  -3.5422  -3.4196
    -3.2990  -2.8832  -0.5284   0.2624   0.2952   1.2636   1.5690   2.3699
     3.6648

          k = 0.2500-0.3750 0.0000 ( 12622 PWs)   bands (ev):

   -46.2103 -45.2975 -45.2657  -4.6933  -4.4856  -4.4656  -4.4330  -4.3591
    -4.2503  -4.0504  -3.9705  -3.8698  -3.8533  -3.6918  -3.6135  -3.4471
    -3.3569  -3.0638  -1.9868  -1.1012   0.3004   2.0375   2.1756   2.8992
     4.0698

          k = 0.2500-0.2500 0.0000 ( 12610 PWs)   bands (ev):

   -46.2120 -45.2994 -45.2676  -4.5670  -4.4390  -4.3658  -4.2969  -4.2755
    -4.1661  -4.1239  -4.0744  -3.8996  -3.8424  -3.6875  -3.5862  -3.5742
    -3.4130  -3.4017  -3.1510  -2.3134  -0.8419   1.2738   2.9278   3.8647
     4.4538

          k = 0.2500-0.1250 0.0000 ( 12575 PWs)   bands (ev):

   -46.2137 -45.3012 -45.2694  -4.7469  -4.6319  -4.5680  -4.4304  -4.1647
    -4.1541  -4.0952  -4.0206  -3.9785  -3.8116  -3.7073  -3.6872  -3.6204
    -3.4438  -3.2894  -3.2132  -2.9193  -1.4766   0.5785   2.1751   3.6026
     4.1167

          k = 0.3750-0.0000 0.0000 ( 12594 PWs)   bands (ev):

   -46.2126 -45.3001 -45.2682  -4.8779  -4.7134  -4.6851  -4.5751  -4.2999
    -4.1849  -3.9076  -3.8331  -3.7964  -3.7873  -3.7607  -3.5538  -3.3223
    -3.1753  -3.0866  -2.6167  -1.9536  -0.7614   0.9239   1.4092   1.7648
     3.2698

          k = 0.3750 0.1250 0.0000 ( 12609 PWs)   bands (ev):

   -46.2120 -45.2993 -45.2675  -4.7098  -4.6387  -4.5431  -4.4700  -4.2905
    -4.0947  -4.0363  -4.0179  -3.9418  -3.7979  -3.7399  -3.5995  -3.4918
    -3.1884  -3.1308  -2.4471  -1.7271  -0.4708   1.2708   1.6172   2.0937
     3.4800

          k = 0.3750 0.2500 0.0000 ( 12622 PWs)   bands (ev):

   -46.2103 -45.2975 -45.2657  -4.6933  -4.4856  -4.4656  -4.4330  -4.3591
    -4.2503  -4.0504  -3.9705  -3.8698  -3.8533  -3.6918  -3.6135  -3.4471
    -3.3569  -3.0638  -1.9868  -1.1012   0.3004   2.0375   2.1756   2.8992
     4.0698

          k = 0.3750 0.3750 0.0000 ( 12670 PWs)   bands (ev):

   -46.2087 -45.2957 -45.2640  -4.7682  -4.7204  -4.6879  -4.6519  -4.3597
    -4.2300  -4.2094  -4.1222  -3.6631  -3.6487  -3.6287  -3.3862  -3.3050
    -3.0389  -2.8563  -1.0311   0.0046   1.5090   1.9246   3.1847   3.4115
     5.0114

          k = 0.3750-0.5000 0.0000 ( 12656 PWs)   bands (ev):

   -46.2080 -45.2949 -45.2631  -4.8737  -4.8277  -4.7798  -4.6650  -4.3136
    -4.3109  -4.2266  -4.2047  -3.7254  -3.6367  -3.5966  -3.2082  -3.1534
    -2.9587  -2.6669   0.2286   0.8424   1.2863   2.0672   2.8262   3.5941
     4.7391

          k = 0.3750-0.3750 0.0000 ( 12670 PWs)   bands (ev):

   -46.2087 -45.2957 -45.2640  -4.7682  -4.7204  -4.6879  -4.6519  -4.3597
    -4.2300  -4.2094  -4.1222  -3.6631  -3.6487  -3.6287  -3.3862  -3.3050
    -3.0389  -2.8563  -1.0311   0.0046   1.5090   1.9246   3.1847   3.4115
     4.9146

          k = 0.3750-0.2500 0.0000 ( 12622 PWs)   bands (ev):

   -46.2103 -45.2975 -45.2657  -4.6933  -4.4856  -4.4656  -4.4330  -4.3591
    -4.2503  -4.0504  -3.9705  -3.8698  -3.8533  -3.6918  -3.6135  -3.4471
    -3.3569  -3.0638  -1.9868  -1.1012   0.3004   2.0375   2.1756   2.8992
     4.0698

          k = 0.3750-0.1250 0.0000 ( 12609 PWs)   bands (ev):

   -46.2120 -45.2993 -45.2675  -4.7098  -4.6387  -4.5431  -4.4700  -4.2905
    -4.0947  -4.0363  -4.0179  -3.9418  -3.7979  -3.7399  -3.5995  -3.4918
    -3.1884  -3.1308  -2.4471  -1.7271  -0.4708   1.2708   1.6172   2.0937
     3.4800

          k =-0.5000 0.0000 0.0000 ( 12618 PWs)   bands (ev):

   -46.2119 -45.2993 -45.2675  -4.8369  -4.8126  -4.6433  -4.5433  -4.3858
    -4.1495  -3.9818  -3.9030  -3.8393  -3.7788  -3.7237  -3.5414  -3.3903
    -3.0765  -2.9566  -0.9736  -0.5796  -0.4758   0.0983   0.3981   0.9964
     2.7433

          k =-0.5000 0.1250 0.0000 ( 12650 PWs)   bands (ev):

   -46.2113 -45.2986 -45.2668  -4.8073  -4.5972  -4.5078  -4.4216  -4.3751
    -4.1745  -4.1030  -4.0059  -3.9130  -3.8196  -3.7651  -3.5663  -3.5502
    -3.1742  -2.9350  -0.8727  -0.3032  -0.2922   0.4543   0.7210   1.3841
     2.9716

          k =-0.5000 0.2500 0.0000 ( 12660 PWs)   bands (ev):

   -46.2097 -45.2968 -45.2650  -4.7947  -4.5573  -4.5081  -4.4339  -4.3445
    -4.3388  -4.0374  -3.9388  -3.9293  -3.8474  -3.7701  -3.5422  -3.4196
    -3.2990  -2.8832  -0.5284   0.2624   0.2952   1.2636   1.5690   2.3699
     3.6648

          k =-0.5000 0.3750 0.0000 ( 12656 PWs)   bands (ev):

   -46.2080 -45.2949 -45.2631  -4.8737  -4.8277  -4.7798  -4.6650  -4.3136
    -4.3109  -4.2266  -4.2047  -3.7254  -3.6367  -3.5966  -3.2082  -3.1534
    -2.9587  -2.6669   0.2286   0.8424   1.2863   2.0672   2.8262   3.5941
     4.7391

          k =-0.5000-0.5000 0.0000 ( 12564 PWs)   bands (ev):

   -46.2070 -45.2939 -45.2621  -4.9902  -4.9455  -4.7751  -4.7751  -4.3403
    -4.2998  -4.2998  -4.2559  -3.7062  -3.7062  -3.5518  -2.9445  -2.9177
    -2.9051  -2.4537   1.0618   1.0618   2.4144   2.4144   3.2985   3.9679
     4.2800

     the Fermi energy is     0.4376 ev

!    total energy              =    -297.51014129 Ry
     estimated scf accuracy    <          7.4E-09 Ry
     smearing contrib. (-TS)   =      -0.00140016 Ry
     internal energy E=F+TS    =    -297.50874113 Ry

     The total energy is F=E-TS. E is the sum of the following terms:
     one-electron contribution =   -2570.42112917 Ry
     hartree contribution      =    1303.83186873 Ry
     xc contribution           =     -77.82876352 Ry
     ewald contribution        =    1047.00710444 Ry
     DFT-D3 Dispersion         =      -0.09782161 Ry

     convergence has been achieved in   5 iterations

     negative rho (up, down):  1.563E-05 0.000E+00

     Forces acting on atoms (cartesian axes, Ry/au):

     atom    1 type  1   force =    -0.00000006   -0.00000038   -0.00213210
     atom    2 type  1   force =    -0.00000004    0.00000025   -0.00262389
     atom    3 type  1   force =     0.00000009   -0.00000002   -0.00055183
     atom    4 type  2   force =    -0.00000004    0.00000014    0.00341163
     atom    5 type  2   force =     0.00000006    0.00000002    0.00144311
     atom    6 type  2   force =    -0.00000002   -0.00000001    0.00045308
     The non-local contrib.  to forces
     atom    1 type  1   force =    -0.00000054   -0.00000022    0.10673537
     atom    2 type  1   force =     0.00000004    0.00000033    0.00241176
     atom    3 type  1   force =     0.00000042   -0.00000036    0.02554160
     atom    4 type  2   force =    -0.00000451   -0.00000440    0.00198733
     atom    5 type  2   force =    -0.00000471   -0.00000472   -0.00106470
     atom    6 type  2   force =    -0.00000753   -0.00000757   -0.05701481
     The ionic contribution  to forces
     atom    1 type  1   force =     0.00000119   -0.00000036   80.46958768
     atom    2 type  1   force =     0.00000005   -0.00000021    7.87435790
     atom    3 type  1   force =    -0.00000000   -0.00000000  -66.15697198
     atom    4 type  2   force =    -0.00000125    0.00000056   12.23948230
     atom    5 type  2   force =     0.00000001    0.00000000   -7.89384181
     atom    6 type  2   force =     0.00000000    0.00000000  -26.53261409
     The local contribution  to forces
     atom    1 type  1   force =    -0.00000174    0.00000055  -80.56744402
     atom    2 type  1   force =    -0.00000025    0.00000017   -7.87830786
     atom    3 type  1   force =     0.00000072   -0.00000059   66.12719273
     atom    4 type  2   force =     0.00000587    0.00000413  -12.23623567
     atom    5 type  2   force =     0.00000447    0.00000481    7.89523246
     atom    6 type  2   force =     0.00000795    0.00000778   26.58794897
     The core correction contribution to forces
     atom    1 type  1   force =    -0.00000005    0.00000002   -0.00663699
     atom    2 type  1   force =    -0.00000002    0.00000000   -0.00031205
     atom    3 type  1   force =     0.00000004   -0.00000004   -0.00020453
     atom    4 type  2   force =     0.00000000    0.00000000    0.00000000
     atom    5 type  2   force =     0.00000000    0.00000000    0.00000000
     atom    6 type  2   force =     0.00000000    0.00000000    0.00000000
     The Hubbard contrib.    to forces
     atom    1 type  1   force =     0.00000000    0.00000000    0.00000000
     atom    2 type  1   force =     0.00000000    0.00000000    0.00000000
     atom    3 type  1   force =     0.00000000    0.00000000    0.00000000
     atom    4 type  2   force =     0.00000000    0.00000000    0.00000000
     atom    5 type  2   force =     0.00000000    0.00000000    0.00000000
     atom    6 type  2   force =     0.00000000    0.00000000    0.00000000
     The SCF correction term to forces
     atom    1 type  1   force =     0.00000107   -0.00000031   -0.00010406
     atom    2 type  1   force =     0.00000000    0.00000000    0.00000000
     atom    3 type  1   force =    -0.00000000    0.00000000   -0.00000000
     atom    4 type  2   force =    -0.00000016   -0.00000011    0.00006552
     atom    5 type  2   force =     0.00000000   -0.00000000    0.00000000
     atom    6 type  2   force =    -0.00000000   -0.00000000   -0.00000000

     DFT-D3 dispersion contribution to forces:
     atom    1 type  1   force =    -0.00000000    0.00000000   -0.00426989
     atom    2 type  1   force =     0.00000000   -0.00000000   -0.00109587
     atom    3 type  1   force =    -0.00000000   -0.00000000    0.00398484
     atom    4 type  2   force =     0.00000000   -0.00000000   -0.00188766
     atom    5 type  2   force =     0.00000000    0.00000000    0.00110434
     atom    6 type  2   force =    -0.00000000   -0.00000000    0.00216424

     Total force =     0.004023     Total SCF correction =     0.000123


     Computing stress (Cartesian axis) and pressure


     negative rho (up, down):  1.563E-05 0.000E+00
          total   stress  (Ry/bohr**3)                   (kbar)     P=      -11.30
  -0.00009135  -0.00000000   0.00000000          -13.44       -0.00        0.00
  -0.00000000  -0.00009134   0.00000000           -0.00      -13.44        0.00
   0.00000000   0.00000000  -0.00004782            0.00        0.00       -7.03

     Energy error            =      2.1E-05 Ry
     Gradient error          =      3.4E-03 Ry/Bohr

     number of scf cycles    =   3
     number of bfgs steps    =   2

     energy             old  =    -297.5101199503 Ry
     energy             new  =    -297.5101412911 Ry

     CASE: energy            _new < energy            _old


     WARNING: bfgs curvature condition failed, Theta= 0.889
     new trust radius        =       0.0064605644 bohr
     new conv_thr            =       0.0000000100 Ry


ATOMIC_POSITIONS (angstrom)
Ag            0.7806820503        0.7806849568       17.8018594309
Ag            0.7806850825        0.7806850825       14.6841104950    0   0   0
Ag            0.7806850825        0.7806850825       11.5613701650    0   0   0
Li            2.3420542623        2.3420553582       16.2532506220
Li            2.3420552475        2.3420552475       13.1227403300    0   0   0
Li            2.3420552475        2.3420552475       10.0000000000    0   0   0



     Writing config-only to output data dir ./LiAg_100/LiAg_100.save/
     NEW-OLD atomic charge density approx. for the potential

     negative rho (up, down):  1.569E-05 0.000E+00

     total cpu time spent up to now is       10.8 secs

     per-process dynamical memory:   202.9 Mb

     Self-consistent Calculation

     iteration #  1     ecut=    55.00 Ry     beta= 0.30
     Davidson diagonalization with overlap
     ethr =  1.00E-06,  avg # of iterations =  3.0

     Threshold (ethr) on eigenvalues was too large:
     Diagonalizing with lowered threshold

     Davidson diagonalization with overlap
     ethr =  6.32E-09,  avg # of iterations =  3.9

     negative rho (up, down):  1.568E-05 0.000E+00

     total cpu time spent up to now is       11.2 secs

     total energy              =    -297.51016849 Ry
     estimated scf accuracy    <       0.00000301 Ry

     iteration #  2     ecut=    55.00 Ry     beta= 0.30
     Davidson diagonalization with overlap
     ethr =  7.17E-09,  avg # of iterations =  2.2

     negative rho (up, down):  1.568E-05 0.000E+00

     total cpu time spent up to now is       11.3 secs

     total energy              =    -297.51016710 Ry
     estimated scf accuracy    <       0.00004062 Ry

     iteration #  3     ecut=    55.00 Ry     beta= 0.30
     Davidson diagonalization with overlap
     ethr =  7.17E-09,  avg # of iterations =  1.7

     negative rho (up, down):  1.568E-05 0.000E+00

     total cpu time spent up to now is       11.5 secs

     total energy              =    -297.51016900 Ry
     estimated scf accuracy    <       0.00000345 Ry

     iteration #  4     ecut=    55.00 Ry     beta= 0.30
     Davidson diagonalization with overlap
     ethr =  7.17E-09,  avg # of iterations =  1.4

     negative rho (up, down):  1.566E-05 0.000E+00

     total cpu time spent up to now is       11.6 secs

     total energy              =    -297.51016923 Ry
     estimated scf accuracy    <       0.00000058 Ry

     iteration #  5     ecut=    55.00 Ry     beta= 0.30
     Davidson diagonalization with overlap
     ethr =  1.37E-09,  avg # of iterations =  1.1

     negative rho (up, down):  1.566E-05 0.000E+00

     total cpu time spent up to now is       11.8 secs

     total energy              =    -297.51016928 Ry
     estimated scf accuracy    <       0.00000001 Ry

     iteration #  6     ecut=    55.00 Ry     beta= 0.30
     Davidson diagonalization with overlap
     ethr =  3.45E-11,  avg # of iterations =  5.0

     negative rho (up, down):  1.565E-05 0.000E+00

     total cpu time spent up to now is       12.0 secs

     End of self-consistent calculation

          k = 0.0000 0.0000 0.0000 ( 12493 PWs)   bands (ev):

   -46.2171 -45.3044 -45.2722  -5.4779  -5.1575  -4.9003  -4.8003  -4.7748
    -4.4811  -4.3459  -3.9014  -3.9014  -3.8182  -3.6263  -3.6263  -3.4353
    -3.3874  -3.1505  -3.1505  -2.9045  -2.2540  -0.4275   1.1145   2.7111
     3.6843

          k = 0.0000 0.1250 0.0000 ( 12528 PWs)   bands (ev):

   -46.2164 -45.3037 -45.2714  -5.2667  -4.9818  -4.7863  -4.7280  -4.6694
    -4.3753  -4.1953  -4.0660  -3.8838  -3.8565  -3.6152  -3.6011  -3.5204
    -3.4670  -3.2587  -3.1404  -2.9799  -2.1167  -0.2211   1.3386   2.9299
     3.9131

          k = 0.0000 0.2500 0.0000 ( 12550 PWs)   bands (ev):

   -46.2146 -45.3017 -45.2694  -4.9959  -4.7947  -4.6611  -4.4384  -4.2768
    -4.1524  -4.1376  -3.9895  -3.8416  -3.7180  -3.6693  -3.6585  -3.5797
    -3.4857  -3.1612  -3.1610  -3.1114  -1.6937   0.3128   1.8883   3.3019
     3.9304

          k = 0.0000 0.3750 0.0000 ( 12594 PWs)   bands (ev):

   -46.2129 -45.2998 -45.2676  -4.8771  -4.7130  -4.6843  -4.5750  -4.3003
    -4.1893  -3.9071  -3.8314  -3.7958  -3.7886  -3.7626  -3.5532  -3.3269
    -3.1759  -3.0897  -2.6162  -1.9550  -0.7616   0.9241   1.4097   1.7646
     3.2696

          k = 0.0000-0.5000 0.0000 ( 12618 PWs)   bands (ev):

   -46.2122 -45.2990 -45.2668  -4.8361  -4.8123  -4.6425  -4.5432  -4.3862
    -4.1540  -3.9813  -3.9013  -3.8410  -3.7782  -3.7252  -3.5408  -3.3950
    -3.0797  -2.9570  -0.9728  -0.5791  -0.4773   0.0986   0.3971   0.9954
     2.7449

          k = 0.1250-0.0000 0.0000 ( 12528 PWs)   bands (ev):

   -46.2164 -45.3037 -45.2714  -5.2667  -4.9818  -4.7863  -4.7280  -4.6694
    -4.3753  -4.1953  -4.0660  -3.8838  -3.8565  -3.6152  -3.6011  -3.5204
    -3.4670  -3.2587  -3.1404  -2.9799  -2.1167  -0.2211   1.3386   2.9299
     3.9131

          k = 0.1250 0.1250 0.0000 ( 12540 PWs)   bands (ev):

   -46.2156 -45.3029 -45.2706  -5.0140  -4.7647  -4.7177  -4.6771  -4.6115
    -4.1751  -4.1658  -4.0655  -4.0168  -3.8729  -3.7138  -3.6096  -3.5570
    -3.4660  -3.2551  -3.2320  -3.0600  -1.9599   0.0005   1.5781   3.1669
     4.1475

          k = 0.1250 0.2500 0.0000 ( 12575 PWs)   bands (ev):

   -46.2139 -45.3009 -45.2687  -4.7464  -4.6321  -4.5666  -4.4299  -4.1646
    -4.1541  -4.0980  -4.0208  -3.9783  -3.8120  -3.7065  -3.6863  -3.6230
    -3.4456  -3.2928  -3.2161  -2.9217  -1.4760   0.5786   2.1754   3.6043
     4.1170

          k = 0.1250 0.3750 0.0000 ( 12609 PWs)   bands (ev):

   -46.2122 -45.2990 -45.2668  -4.7093  -4.6382  -4.5433  -4.4687  -4.2908
    -4.0943  -4.0377  -4.0169  -3.9436  -3.7987  -3.7418  -3.5994  -3.4964
    -3.1913  -3.1315  -2.4466  -1.7285  -0.4712   1.2711   1.6178   2.0934
     3.4799

          k = 0.1250-0.5000 0.0000 ( 12650 PWs)   bands (ev):

   -46.2116 -45.2984 -45.2661  -4.8069  -4.5966  -4.5080  -4.4204  -4.3756
    -4.1742  -4.1012  -4.0075  -3.9153  -3.8214  -3.7658  -3.5710  -3.5504
    -3.1772  -2.9356  -0.8719  -0.3027  -0.2936   0.4544   0.7199   1.3830
     2.9734

          k = 0.1250-0.3750 0.0000 ( 12609 PWs)   bands (ev):

   -46.2122 -45.2990 -45.2668  -4.7093  -4.6382  -4.5433  -4.4687  -4.2908
    -4.0943  -4.0377  -4.0169  -3.9436  -3.7987  -3.7418  -3.5994  -3.4964
    -3.1913  -3.1315  -2.4466  -1.7285  -0.4712   1.2711   1.6178   2.0934
     3.4799

          k = 0.1250-0.2500 0.0000 ( 12575 PWs)   bands (ev):

   -46.2139 -45.3009 -45.2687  -4.7464  -4.6321  -4.5666  -4.4299  -4.1646
    -4.1541  -4.0980  -4.0208  -3.9783  -3.8120  -3.7065  -3.6863  -3.6230
    -3.4456  -3.2928  -3.2161  -2.9217  -1.4760   0.5786   2.1754   3.6043
     4.1170

          k = 0.1250-0.1250 0.0000 ( 12540 PWs)   bands (ev):

   -46.2156 -45.3029 -45.2706  -5.0140  -4.7647  -4.7177  -4.6771  -4.6115
    -4.1751  -4.1658  -4.0655  -4.0168  -3.8729  -3.7138  -3.6096  -3.5570
    -3.4660  -3.2551  -3.2320  -3.0600  -1.9599   0.0005   1.5781   3.1669
     4.1475

          k = 0.2500-0.0000 0.0000 ( 12550 PWs)   bands (ev):

   -46.2146 -45.3017 -45.2694  -4.9959  -4.7947  -4.6611  -4.4384  -4.2768
    -4.1524  -4.1376  -3.9895  -3.8416  -3.7180  -3.6693  -3.6585  -3.5797
    -3.4857  -3.1612  -3.1610  -3.1114  -1.6937   0.3128   1.8883   3.3019
     3.9304

          k = 0.2500 0.1250 0.0000 ( 12575 PWs)   bands (ev):

   -46.2139 -45.3009 -45.2687  -4.7464  -4.6321  -4.5666  -4.4299  -4.1646
    -4.1541  -4.0980  -4.0208  -3.9783  -3.8120  -3.7065  -3.6863  -3.6230
    -3.4456  -3.2928  -3.2161  -2.9217  -1.4760   0.5786   2.1754   3.6043
     4.1170

          k = 0.2500 0.2500 0.0000 ( 12610 PWs)   bands (ev):

   -46.2123 -45.2991 -45.2669  -4.5670  -4.4387  -4.3652  -4.2971  -4.2740
    -4.1653  -4.1237  -4.0743  -3.8993  -3.8433  -3.6909  -3.5897  -3.5754
    -3.4157  -3.4037  -3.1514  -2.3153  -0.8417   1.2741   2.9282   3.8658
     4.4555

          k = 0.2500 0.3750 0.0000 ( 12622 PWs)   bands (ev):

   -46.2105 -45.2972 -45.2650  -4.6928  -4.4855  -4.4657  -4.4311  -4.3589
    -4.2505  -4.0503  -3.9706  -3.8694  -3.8573  -3.6941  -3.6146  -3.4497
    -3.3598  -3.0650  -1.9861  -1.1028   0.2997   2.0385   2.1760   2.8986
     4.0698

          k = 0.2500-0.5000 0.0000 ( 12660 PWs)   bands (ev):

   -46.2099 -45.2965 -45.2643  -4.7943  -4.5572  -4.5062  -4.4338  -4.3444
    -4.3391  -4.0374  -3.9390  -3.9338  -3.8465  -3.7724  -3.5440  -3.4218
    -3.3017  -2.8842  -0.5276   0.2608   0.2959   1.2632   1.5677   2.3686
     3.6668

          k = 0.2500-0.3750 0.0000 ( 12622 PWs)   bands (ev):

   -46.2105 -45.2972 -45.2650  -4.6928  -4.4855  -4.4657  -4.4311  -4.3589
    -4.2505  -4.0503  -3.9706  -3.8694  -3.8573  -3.6941  -3.6146  -3.4497
    -3.3598  -3.0650  -1.9861  -1.1028   0.2997   2.0385   2.1760   2.8986
     4.0698

          k = 0.2500-0.2500 0.0000 ( 12610 PWs)   bands (ev):

   -46.2123 -45.2991 -45.2669  -4.5670  -4.4387  -4.3652  -4.2971  -4.2740
    -4.1653  -4.1237  -4.0743  -3.8993  -3.8433  -3.6909  -3.5897  -3.5754
    -3.4157  -3.4037  -3.1514  -2.3153  -0.8417   1.2741   2.9282   3.8658
     4.4554

          k = 0.2500-0.1250 0.0000 ( 12575 PWs)   bands (ev):

   -46.2139 -45.3009 -45.2687  -4.7464  -4.6321  -4.5666  -4.4299  -4.1646
    -4.1541  -4.0980  -4.0208  -3.9783  -3.8120  -3.7065  -3.6863  -3.6230
    -3.4456  -3.2928  -3.2161  -2.9217  -1.4760   0.5786   2.1754   3.6043
     4.1170

          k = 0.3750-0.0000 0.0000 ( 12594 PWs)   bands (ev):

   -46.2129 -45.2998 -45.2676  -4.8771  -4.7130  -4.6843  -4.5750  -4.3003
    -4.1893  -3.9071  -3.8314  -3.7958  -3.7886  -3.7626  -3.5532  -3.3269
    -3.1759  -3.0897  -2.6162  -1.9550  -0.7616   0.9241   1.4097   1.7646
     3.2696

          k = 0.3750 0.1250 0.0000 ( 12609 PWs)   bands (ev):

   -46.2122 -45.2990 -45.2668  -4.7093  -4.6382  -4.5433  -4.4687  -4.2908
    -4.0943  -4.0377  -4.0169  -3.9436  -3.7987  -3.7418  -3.5994  -3.4964
    -3.1913  -3.1315  -2.4466  -1.7285  -0.4712   1.2711   1.6178   2.0934
     3.4799

          k = 0.3750 0.2500 0.0000 ( 12622 PWs)   bands (ev):

   -46.2105 -45.2972 -45.2650  -4.6928  -4.4855  -4.4657  -4.4311  -4.3589
    -4.2505  -4.0503  -3.9706  -3.8694  -3.8573  -3.6941  -3.6146  -3.4497
    -3.3598  -3.0650  -1.9861  -1.1028   0.2997   2.0385   2.1760   2.8986
     4.0698

          k = 0.3750 0.3750 0.0000 ( 12670 PWs)   bands (ev):

   -46.2090 -45.2955 -45.2633  -4.7681  -4.7182  -4.6874  -4.6514  -4.3602
    -4.2302  -4.2099  -4.1267  -3.6653  -3.6510  -3.6301  -3.3861  -3.3036
    -3.0396  -2.8601  -1.0302   0.0031   1.5079   1.9257   3.1836   3.4123
     5.0084

          k = 0.3750-0.5000 0.0000 ( 12656 PWs)   bands (ev):

   -46.2082 -45.2947 -45.2625  -4.8738  -4.8254  -4.7794  -4.6645  -4.3141
    -4.3113  -4.2312  -4.2049  -3.7277  -3.6390  -3.5980  -3.2078  -3.1525
    -2.9591  -2.6704   0.2296   0.8434   1.2847   2.0663   2.8247   3.5923
     4.7413

          k = 0.3750-0.3750 0.0000 ( 12670 PWs)   bands (ev):

   -46.2090 -45.2955 -45.2633  -4.7681  -4.7182  -4.6874  -4.6514  -4.3602
    -4.2302  -4.2099  -4.1267  -3.6653  -3.6510  -3.6301  -3.3861  -3.3036
    -3.0396  -2.8601  -1.0302   0.0031   1.5079   1.9257   3.1836   3.4123
     4.9149

          k = 0.3750-0.2500 0.0000 ( 12622 PWs)   bands (ev):

   -46.2105 -45.2972 -45.2650  -4.6928  -4.4855  -4.4657  -4.4311  -4.3589
    -4.2505  -4.0503  -3.9706  -3.8694  -3.8573  -3.6941  -3.6146  -3.4497
    -3.3598  -3.0650  -1.9861  -1.1028   0.2997   2.0385   2.1760   2.8986
     4.0698

          k = 0.3750-0.1250 0.0000 ( 12609 PWs)   bands (ev):

   -46.2122 -45.2990 -45.2668  -4.7093  -4.6382  -4.5433  -4.4687  -4.2908
    -4.0943  -4.0377  -4.0169  -3.9436  -3.7987  -3.7418  -3.5994  -3.4964
    -3.1913  -3.1315  -2.4466  -1.7285  -0.4712   1.2711   1.6178   2.0934
     3.4799

          k =-0.5000 0.0000 0.0000 ( 12618 PWs)   bands (ev):

   -46.2122 -45.2990 -45.2668  -4.8361  -4.8123  -4.6425  -4.5432  -4.3862
    -4.1540  -3.9813  -3.9013  -3.8410  -3.7782  -3.7252  -3.5408  -3.3950
    -3.0797  -2.9570  -0.9728  -0.5791  -0.4773   0.0986   0.3971   0.9954
     2.7449

          k =-0.5000 0.1250 0.0000 ( 12650 PWs)   bands (ev):

   -46.2116 -45.2984 -45.2661  -4.8069  -4.5966  -4.5080  -4.4204  -4.3756
    -4.1742  -4.1012  -4.0075  -3.9153  -3.8214  -3.7658  -3.5710  -3.5504
    -3.1772  -2.9356  -0.8719  -0.3027  -0.2936   0.4544   0.7199   1.3830
     2.9734

          k =-0.5000 0.2500 0.0000 ( 12660 PWs)   bands (ev):

   -46.2099 -45.2965 -45.2643  -4.7943  -4.5572  -4.5062  -4.4338  -4.3444
    -4.3391  -4.0374  -3.9390  -3.9338  -3.8465  -3.7724  -3.5440  -3.4218
    -3.3017  -2.8842  -0.5276   0.2608   0.2959   1.2632   1.5677   2.3686
     3.6668

          k =-0.5000 0.3750 0.0000 ( 12656 PWs)   bands (ev):

   -46.2082 -45.2947 -45.2625  -4.8738  -4.8254  -4.7794  -4.6645  -4.3141
    -4.3113  -4.2312  -4.2049  -3.7277  -3.6390  -3.5980  -3.2078  -3.1525
    -2.9591  -2.6704   0.2296   0.8434   1.2847   2.0663   2.8247   3.5923
     4.7413

          k =-0.5000-0.5000 0.0000 ( 12564 PWs)   bands (ev):

   -46.2073 -45.2936 -45.2614  -4.9903  -4.9431  -4.7746  -4.7746  -4.3450
    -4.3003  -4.3003  -4.2561  -3.7086  -3.7086  -3.5532  -2.9446  -2.9182
    -2.9034  -2.4574   1.0630   1.0630   2.4131   2.4131   3.2990   3.9664
     4.2774

     the Fermi energy is     0.4375 ev

!    total energy              =    -297.51016929 Ry
     estimated scf accuracy    <          3.5E-09 Ry
     smearing contrib. (-TS)   =      -0.00139964 Ry
     internal energy E=F+TS    =    -297.50876965 Ry

[...]
     Davidson diagonalization with overlap
     ethr =  1.55E-08,  avg # of iterations =  1.0

     negative rho (up, down):  1.573E-05 0.000E+00

     total cpu time spent up to now is       15.8 secs

     total energy              =    -297.51023230 Ry
     estimated scf accuracy    <       0.00000005 Ry

     iteration #  6     ecut=    55.00 Ry     beta= 0.30
     Davidson diagonalization with overlap
     ethr =  1.23E-10,  avg # of iterations =  4.9

     negative rho (up, down):  1.573E-05 0.000E+00

     total cpu time spent up to now is       16.1 secs

     total energy              =    -297.51023232 Ry
     estimated scf accuracy    <       0.00000002 Ry

     iteration #  7     ecut=    55.00 Ry     beta= 0.30
     Davidson diagonalization with overlap
     ethr =  3.87E-11,  avg # of iterations =  2.0

     negative rho (up, down):  1.572E-05 0.000E+00

     total cpu time spent up to now is       16.2 secs

     End of self-consistent calculation

          k = 0.0000 0.0000 0.0000 ( 12493 PWs)   bands (ev):

   -46.2174 -45.3037 -45.2693  -5.4758  -5.1547  -4.8982  -4.7954  -4.7729
    -4.4969  -4.3606  -3.8991  -3.8991  -3.8236  -3.6246  -3.6246  -3.4350
    -3.3802  -3.1613  -3.1613  -2.9197  -2.2502  -0.4278   1.1164   2.7223
     3.6852

          k = 0.0000 0.1250 0.0000 ( 12528 PWs)   bands (ev):

   -46.2167 -45.3030 -45.2685  -5.2647  -4.9792  -4.7838  -4.7263  -4.6643
    -4.3908  -4.2081  -4.0671  -3.8815  -3.8587  -3.6134  -3.6018  -3.5198
    -3.4601  -3.2689  -3.1512  -2.9954  -2.1128  -0.2212   1.3403   2.9401
     3.9140

          k = 0.0000 0.2500 0.0000 ( 12550 PWs)   bands (ev):

   -46.2150 -45.3010 -45.2665  -4.9933  -4.7919  -4.6598  -4.4366  -4.2921
    -4.1519  -4.1390  -3.9853  -3.8394  -3.7169  -3.6811  -3.6519  -3.5776
    -3.4908  -3.1769  -3.1684  -3.1224  -1.6905   0.3132   1.8893   3.3085
     3.9309

          k = 0.0000 0.3750 0.0000 ( 12594 PWs)   bands (ev):

   -46.2133 -45.2991 -45.2647  -4.8741  -4.7113  -4.6812  -4.5747  -4.3014
    -4.2054  -3.9055  -3.8249  -3.7935  -3.7932  -3.7687  -3.5512  -3.3437
    -3.1778  -3.1005  -2.6142  -1.9598  -0.7623   0.9251   1.4117   1.7643
     3.2691

          k = 0.0000-0.5000 0.0000 ( 12618 PWs)   bands (ev):

   -46.2126 -45.2983 -45.2639  -4.8330  -4.8108  -4.6394  -4.5428  -4.3876
    -4.1702  -3.9795  -3.8947  -3.8470  -3.7760  -3.7305  -3.5386  -3.4120
    -3.0905  -2.9582  -0.9699  -0.5770  -0.4823   0.0997   0.3937   0.9921
     2.7514

          k = 0.1250-0.0000 0.0000 ( 12528 PWs)   bands (ev):

   -46.2167 -45.3030 -45.2685  -5.2647  -4.9792  -4.7838  -4.7263  -4.6643
    -4.3908  -4.2081  -4.0671  -3.8815  -3.8587  -3.6134  -3.6018  -3.5198
    -3.4601  -3.2689  -3.1512  -2.9954  -2.1128  -0.2212   1.3403   2.9401
     3.9140

          k = 0.1250 0.1250 0.0000 ( 12540 PWs)   bands (ev):

   -46.2160 -45.3022 -45.2677  -5.0125  -4.7641  -4.7154  -4.6723  -4.6069
    -4.1842  -4.1797  -4.0715  -4.0152  -3.8743  -3.7125  -3.6091  -3.5501
    -3.4658  -3.2657  -3.2424  -3.0758  -1.9561   0.0007   1.5796   3.1764
     4.1484

          k = 0.1250 0.2500 0.0000 ( 12575 PWs)   bands (ev):

   -46.2143 -45.3002 -45.2658  -4.7447  -4.6325  -4.5613  -4.4282  -4.1647
    -4.1537  -4.1090  -4.0208  -3.9769  -3.8135  -3.7041  -3.6825  -3.6319
    -3.4519  -3.3052  -3.2262  -2.9300  -1.4734   0.5793   2.1766   3.6109
     4.1183

          k = 0.1250 0.3750 0.0000 ( 12609 PWs)   bands (ev):

   -46.2126 -45.2983 -45.2639  -4.7074  -4.6360  -4.5442  -4.4640  -4.2920
    -4.0931  -4.0448  -4.0117  -3.9488  -3.8013  -3.7481  -3.5991  -3.5130
    -3.2014  -3.1339  -2.4444  -1.7335  -0.4723   1.2725   1.6202   2.0928
     3.4794

          k = 0.1250-0.5000 0.0000 ( 12650 PWs)   bands (ev):

   -46.2120 -45.2976 -45.2632  -4.8053  -4.5942  -4.5085  -4.4159  -4.3771
    -4.1728  -4.0942  -4.0141  -3.9227  -3.8275  -3.7682  -3.5881  -3.5511
    -3.1875  -2.9370  -0.8689  -0.3003  -0.2987   0.4550   0.7160   1.3793
     2.9804

          k = 0.1250-0.3750 0.0000 ( 12609 PWs)   bands (ev):

   -46.2126 -45.2983 -45.2639  -4.7074  -4.6360  -4.5442  -4.4640  -4.2920
    -4.0931  -4.0448  -4.0117  -3.9488  -3.8013  -3.7481  -3.5991  -3.5130
    -3.2014  -3.1339  -2.4444  -1.7335  -0.4723   1.2725   1.6202   2.0928
     3.4794

          k = 0.1250-0.2500 0.0000 ( 12575 PWs)   bands (ev):

   -46.2143 -45.3002 -45.2658  -4.7447  -4.6325  -4.5613  -4.4282  -4.1647
    -4.1537  -4.1090  -4.0208  -3.9769  -3.8135  -3.7041  -3.6825  -3.6319
    -3.4519  -3.3052  -3.2262  -2.9300  -1.4734   0.5793   2.1766   3.6109
     4.1183

          k = 0.1250-0.1250 0.0000 ( 12540 PWs)   bands (ev):

   -46.2160 -45.3022 -45.2677  -5.0125  -4.7641  -4.7154  -4.6723  -4.6069
    -4.1842  -4.1797  -4.0715  -4.0152  -3.8743  -3.7125  -3.6091  -3.5501
    -3.4658  -3.2658  -3.2423  -3.0758  -1.9561   0.0007   1.5796   3.1764
     4.1484

          k = 0.2500-0.0000 0.0000 ( 12550 PWs)   bands (ev):

   -46.2150 -45.3010 -45.2665  -4.9933  -4.7919  -4.6598  -4.4366  -4.2921
    -4.1519  -4.1390  -3.9853  -3.8394  -3.7169  -3.6811  -3.6519  -3.5776
    -3.4908  -3.1769  -3.1684  -3.1224  -1.6905   0.3132   1.8893   3.3085
     3.9309

          k = 0.2500 0.1250 0.0000 ( 12575 PWs)   bands (ev):

   -46.2143 -45.3002 -45.2658  -4.7447  -4.6325  -4.5613  -4.4282  -4.1647
    -4.1537  -4.1090  -4.0208  -3.9769  -3.8135  -3.7041  -3.6825  -3.6319
    -3.4519  -3.3052  -3.2262  -2.9300  -1.4734   0.5793   2.1766   3.6109
     4.1183

          k = 0.2500 0.2500 0.0000 ( 12610 PWs)   bands (ev):

   -46.2126 -45.2984 -45.2640  -4.5669  -4.4376  -4.3631  -4.2978  -4.2683
    -4.1626  -4.1226  -4.0737  -3.8978  -3.8463  -3.7029  -3.6023  -3.5793
    -3.4252  -3.4104  -3.1525  -2.3222  -0.8408   1.2754   2.9299   3.8698
     4.4617

          k = 0.2500 0.3750 0.0000 ( 12622 PWs)   bands (ev):

   -46.2109 -45.2965 -45.2621  -4.6909  -4.4851  -4.4659  -4.4240  -4.3582
    -4.2508  -4.0498  -3.9707  -3.8762  -3.8632  -3.7017  -3.6184  -3.4586
    -3.3698  -3.0690  -1.9833  -1.1082   0.2977   2.0420   2.1780   2.8966
     4.0701

          k = 0.2500-0.5000 0.0000 ( 12660 PWs)   bands (ev):

   -46.2103 -45.2958 -45.2614  -4.7925  -4.5568  -4.4986  -4.4334  -4.3439
    -4.3401  -4.0371  -3.9502  -3.9396  -3.8428  -3.7799  -3.5505  -3.4290
    -3.3113  -2.8874  -0.5243   0.2554   0.2990   1.2622   1.5630   2.3643
     3.6746

          k = 0.2500-0.3750 0.0000 ( 12622 PWs)   bands (ev):

   -46.2109 -45.2965 -45.2621  -4.6909  -4.4851  -4.4659  -4.4240  -4.3582
    -4.2508  -4.0498  -3.9707  -3.8762  -3.8632  -3.7017  -3.6184  -3.4586
    -3.3698  -3.0690  -1.9833  -1.1082   0.2977   2.0420   2.1780   2.8966
     4.0701

          k = 0.2500-0.2500 0.0000 ( 12610 PWs)   bands (ev):

   -46.2126 -45.2984 -45.2640  -4.5669  -4.4376  -4.3631  -4.2978  -4.2683
    -4.1626  -4.1226  -4.0737  -3.8978  -3.8463  -3.7029  -3.6023  -3.5793
    -3.4252  -3.4104  -3.1525  -2.3222  -0.8408   1.2754   2.9299   3.8698
     4.4617

          k = 0.2500-0.1250 0.0000 ( 12575 PWs)   bands (ev):

   -46.2143 -45.3002 -45.2658  -4.7447  -4.6325  -4.5613  -4.4282  -4.1647
    -4.1537  -4.1090  -4.0208  -3.9769  -3.8135  -3.7041  -3.6825  -3.6319
    -3.4519  -3.3052  -3.2262  -2.9300  -1.4734   0.5793   2.1766   3.6109
     4.1183

          k = 0.3750-0.0000 0.0000 ( 12594 PWs)   bands (ev):

   -46.2133 -45.2991 -45.2647  -4.8741  -4.7113  -4.6812  -4.5747  -4.3014
    -4.2054  -3.9055  -3.8249  -3.7935  -3.7932  -3.7687  -3.5512  -3.3437
    -3.1778  -3.1005  -2.6142  -1.9598  -0.7623   0.9251   1.4117   1.7643
     3.2691

          k = 0.3750 0.1250 0.0000 ( 12609 PWs)   bands (ev):

   -46.2126 -45.2983 -45.2639  -4.7074  -4.6360  -4.5442  -4.4640  -4.2920
    -4.0931  -4.0448  -4.0117  -3.9488  -3.8013  -3.7481  -3.5991  -3.5130
    -3.2014  -3.1339  -2.4444  -1.7335  -0.4723   1.2725   1.6202   2.0928
     3.4794

          k = 0.3750 0.2500 0.0000 ( 12622 PWs)   bands (ev):

   -46.2109 -45.2965 -45.2621  -4.6909  -4.4851  -4.4659  -4.4240  -4.3582
    -4.2508  -4.0498  -3.9707  -3.8762  -3.8632  -3.7017  -3.6184  -3.4586
    -3.3698  -3.0690  -1.9833  -1.1082   0.2977   2.0420   2.1780   2.8966
     4.0701

          k = 0.3750 0.3750 0.0000 ( 12670 PWs)   bands (ev):

   -46.2094 -45.2948 -45.2604  -4.7679  -4.7101  -4.6853  -4.6494  -4.3620
    -4.2310  -4.2113  -4.1431  -3.6728  -3.6589  -3.6349  -3.3852  -3.2982
    -3.0415  -2.8737  -1.0268  -0.0024   1.5042   1.9301   3.1796   3.4154
     4.9978

          k = 0.3750-0.5000 0.0000 ( 12656 PWs)   bands (ev):

   -46.2086 -45.2939 -45.2595  -4.8738  -4.8166  -4.7775  -4.6624  -4.3160
    -4.3127  -4.2478  -4.2057  -3.7357  -3.6471  -3.6028  -3.2063  -3.1489
    -2.9604  -2.6830   0.2335   0.8475   1.2790   2.0628   2.8192   3.5859
     4.7498

          k = 0.3750-0.3750 0.0000 ( 12670 PWs)   bands (ev):

   -46.2094 -45.2948 -45.2604  -4.7679  -4.7101  -4.6853  -4.6494  -4.3620
    -4.2310  -4.2113  -4.1431  -3.6728  -3.6589  -3.6349  -3.3852  -3.2982
    -3.0415  -2.8737  -1.0268  -0.0024   1.5042   1.9301   3.1796   3.4154
     4.9163

          k = 0.3750-0.2500 0.0000 ( 12622 PWs)   bands (ev):

   -46.2109 -45.2965 -45.2621  -4.6909  -4.4851  -4.4659  -4.4240  -4.3582
    -4.2508  -4.0498  -3.9707  -3.8762  -3.8632  -3.7017  -3.6184  -3.4586
    -3.3698  -3.0690  -1.9833  -1.1082   0.2977   2.0420   2.1780   2.8966
     4.0701

          k = 0.3750-0.1250 0.0000 ( 12609 PWs)   bands (ev):

   -46.2126 -45.2983 -45.2639  -4.7074  -4.6360  -4.5442  -4.4640  -4.2920
    -4.0931  -4.0448  -4.0117  -3.9488  -3.8013  -3.7481  -3.5991  -3.5130
    -3.2014  -3.1339  -2.4444  -1.7335  -0.4723   1.2725   1.6202   2.0928
     3.4794

          k =-0.5000 0.0000 0.0000 ( 12618 PWs)   bands (ev):

   -46.2126 -45.2983 -45.2639  -4.8330  -4.8108  -4.6394  -4.5428  -4.3876
    -4.1702  -3.9795  -3.8947  -3.8470  -3.7760  -3.7305  -3.5386  -3.4120
    -3.0905  -2.9582  -0.9699  -0.5770  -0.4823   0.0997   0.3937   0.9921
     2.7514

          k =-0.5000 0.1250 0.0000 ( 12650 PWs)   bands (ev):

   -46.2120 -45.2976 -45.2632  -4.8053  -4.5942  -4.5085  -4.4159  -4.3771
    -4.1728  -4.0942  -4.0141  -3.9227  -3.8275  -3.7682  -3.5881  -3.5511
    -3.1875  -2.9370  -0.8689  -0.3003  -0.2987   0.4550   0.7160   1.3793
     2.9804

          k =-0.5000 0.2500 0.0000 ( 12660 PWs)   bands (ev):

   -46.2103 -45.2958 -45.2614  -4.7925  -4.5568  -4.4986  -4.4334  -4.3439
    -4.3401  -4.0371  -3.9502  -3.9396  -3.8428  -3.7799  -3.5505  -3.4290
    -3.3113  -2.8874  -0.5243   0.2554   0.2990   1.2622   1.5630   2.3643
     3.6746

          k =-0.5000 0.3750 0.0000 ( 12656 PWs)   bands (ev):

   -46.2086 -45.2939 -45.2595  -4.8738  -4.8166  -4.7775  -4.6624  -4.3160
    -4.3127  -4.2478  -4.2057  -3.7357  -3.6471  -3.6028  -3.2063  -3.1489
    -2.9604  -2.6830   0.2335   0.8475   1.2790   2.0628   2.8192   3.5859
     4.7498

          k =-0.5000-0.5000 0.0000 ( 12564 PWs)   bands (ev):

   -46.2076 -45.2929 -45.2585  -4.9905  -4.9341  -4.7726  -4.7726  -4.3619
    -4.3020  -4.3020  -4.2567  -3.7168  -3.7168  -3.5583  -2.9446  -2.9195
    -2.8970  -2.4704   1.0677   1.0677   2.4083   2.4083   3.3012   3.9612
     4.2680

     the Fermi energy is     0.4371 ev

!    total energy              =    -297.51023232 Ry
     estimated scf accuracy    <          2.9E-09 Ry
     smearing contrib. (-TS)   =      -0.00139772 Ry
     internal energy E=F+TS    =    -297.50883460 Ry

     The total energy is F=E-TS. E is the sum of the following terms:
     one-electron contribution =   -2572.70267797 Ry
     hartree contribution      =    1304.96942522 Ry
     xc contribution           =     -77.83008939 Ry
     ewald contribution        =    1048.15235329 Ry
     DFT-D3 Dispersion         =      -0.09784574 Ry

     convergence has been achieved in   7 iterations

     negative rho (up, down):  1.572E-05 0.000E+00

     Forces acting on atoms (cartesian axes, Ry/au):

     atom    1 type  1   force =     0.00000009    0.00000003   -0.00045661
     atom    2 type  1   force =    -0.00000007   -0.00000005   -0.00200924
     atom    3 type  1   force =    -0.00000001   -0.00000001   -0.00047741
     atom    4 type  2   force =    -0.00000006   -0.00000007    0.00094321
     atom    5 type  2   force =     0.00000003    0.00000005    0.00155490
     atom    6 type  2   force =     0.00000001    0.00000004    0.00044515
     The non-local contrib.  to forces
     atom    1 type  1   force =    -0.00000045   -0.00000015    0.10618782
     atom    2 type  1   force =     0.00000014   -0.00000008    0.00208990
     atom    3 type  1   force =     0.00000002    0.00000001    0.02540085
     atom    4 type  2   force =    -0.00000455   -0.00000454    0.00045180
     atom    5 type  2   force =    -0.00000449   -0.00000452   -0.00103401
     atom    6 type  2   force =    -0.00000772   -0.00000771   -0.05702223
     The ionic contribution  to forces
     atom    1 type  1   force =     0.00000289    0.00000151   80.51077275
     atom    2 type  1   force =    -0.00000058    0.00000098    7.80905171
     atom    3 type  1   force =    -0.00000000    0.00000000  -66.17461165
     atom    4 type  2   force =    -0.00000234   -0.00000247   12.28985751
     atom    5 type  2   force =     0.00000004   -0.00000002   -7.89768289
     atom    6 type  2   force =     0.00000000   -0.00000000  -26.53738743
     The local contribution  to forces
     atom    1 type  1   force =    -0.00000225   -0.00000135  -80.60627944
     atom    2 type  1   force =     0.00000038   -0.00000096   -7.81156193
     atom    3 type  1   force =     0.00000005   -0.00000005   66.14483244
     atom    4 type  2   force =     0.00000684    0.00000706  -12.28753115
     atom    5 type  2   force =     0.00000451    0.00000459    7.89916029
     atom    6 type  2   force =     0.00000778    0.00000777   26.59266162
     The core correction contribution to forces
     atom    1 type  1   force =    -0.00000003   -0.00000001   -0.00686617
     atom    2 type  1   force =     0.00000002    0.00000000   -0.00039777
     atom    3 type  1   force =     0.00000000   -0.00000000   -0.00021022
     atom    4 type  2   force =     0.00000000    0.00000000    0.00000000
     atom    5 type  2   force =     0.00000000    0.00000000    0.00000000
     atom    6 type  2   force =     0.00000000    0.00000000    0.00000000
     The Hubbard contrib.    to forces
     atom    1 type  1   force =     0.00000000    0.00000000    0.00000000
     atom    2 type  1   force =     0.00000000    0.00000000    0.00000000
     atom    3 type  1   force =     0.00000000    0.00000000    0.00000000
     atom    4 type  2   force =     0.00000000    0.00000000    0.00000000
     atom    5 type  2   force =     0.00000000    0.00000000    0.00000000
     atom    6 type  2   force =     0.00000000    0.00000000    0.00000000
     The SCF correction term to forces
     atom    1 type  1   force =    -0.00000001    0.00000005    0.00006395
     atom    2 type  1   force =    -0.00000000    0.00000000   -0.00000000
     atom    3 type  1   force =    -0.00000000    0.00000000    0.00000000
     atom    4 type  2   force =     0.00000003   -0.00000010    0.00000529
     atom    5 type  2   force =     0.00000000    0.00000000    0.00000000
     atom    6 type  2   force =    -0.00000000    0.00000000    0.00000000

     DFT-D3 dispersion contribution to forces:
     atom    1 type  1   force =    -0.00000001   -0.00000000   -0.00433781
     atom    2 type  1   force =     0.00000001    0.00000000   -0.00106351
     atom    3 type  1   force =    -0.00000000    0.00000000    0.00398121
     atom    4 type  2   force =     0.00000000    0.00000000   -0.00184252
     atom    5 type  2   force =     0.00000000   -0.00000000    0.00110023
     atom    6 type  2   force =    -0.00000000    0.00000000    0.00216241

     Total force =     0.001048     Total SCF correction =     0.000064


     Computing stress (Cartesian axis) and pressure


     negative rho (up, down):  1.572E-05 0.000E+00
          total   stress  (Ry/bohr**3)                   (kbar)     P=      -11.18
  -0.00009036  -0.00000000   0.00000000          -13.29       -0.00        0.00
  -0.00000000  -0.00009036   0.00000000           -0.00      -13.29        0.00
   0.00000000   0.00000000  -0.00004726            0.00        0.00       -6.95

     Energy error            =      3.0E-05 Ry
     Gradient error          =      9.4E-04 Ry/Bohr

     bfgs converged in   6 scf cycles and   5 bfgs steps
     (criteria: energy <  1.0E-04 Ry, force <  1.0E-03 Ry/Bohr)

     End of BFGS Geometry Optimization

     Final energy             =    -297.5102323222 Ry

     File ./LiAg_100/LiAg_100.bfgs deleted, as requested
Begin final coordinates

ATOMIC_POSITIONS (angstrom)
Ag            0.7806787633        0.7806842790       17.7939936985
Ag            0.7806850825        0.7806850825       14.6841104950    0   0   0
Ag            0.7806850825        0.7806850825       11.5613701650    0   0   0
Li            2.3420528521        2.3420557995       16.2660710598
Li            2.3420552475        2.3420552475       13.1227403300    0   0   0
Li            2.3420552475        2.3420552475       10.0000000000    0   0   0
End final coordinates



     Writing all to output data dir ./LiAg_100/LiAg_100.save/

     init_run     :      1.15s CPU      1.83s WALL (       1 calls)
     electrons    :      7.28s CPU     10.27s WALL (       6 calls)
     update_pot   :      0.77s CPU      0.82s WALL (       5 calls)
     forces       :      0.73s CPU      0.88s WALL (       6 calls)
     force_dftd3  :      0.05s CPU      0.11s WALL (       6 calls)
     stress       :      1.97s CPU      2.04s WALL (       6 calls)
     stres_dftd3  :      0.03s CPU      0.05s WALL (       6 calls)

     Called by init_run:
     wfcinit      :      0.16s CPU      0.28s WALL (       1 calls)
     potinit      :      0.39s CPU      0.70s WALL (       1 calls)
     hinit0       :      0.52s CPU      0.70s WALL (       1 calls)

     Called by electrons:
     c_bands      :      5.27s CPU      6.12s WALL (      43 calls)
     sum_band     :      1.03s CPU      1.43s WALL (      43 calls)
     v_of_rho     :      0.54s CPU      1.46s WALL (      45 calls)
     newd         :      0.24s CPU      0.50s WALL (      45 calls)
     mix_rho      :      0.05s CPU      0.17s WALL (      43 calls)
     energy_dftd3 :      0.01s CPU      0.01s WALL (       6 calls)

     Called by c_bands:
     init_us_2    :      0.05s CPU      0.06s WALL (     891 calls)
     init_us_2:cp :      0.05s CPU      0.06s WALL (     891 calls)
     cegterg      :      4.93s CPU      5.35s WALL (     387 calls)

     Called by *egterg:
     cdiaghg      :      1.29s CPU      1.34s WALL (    1493 calls)
     h_psi        :      3.19s CPU      3.54s WALL (    1583 calls)
     s_psi        :      0.10s CPU      0.11s WALL (    1583 calls)
     g_psi        :      0.01s CPU      0.01s WALL (    1187 calls)

     Called by h_psi:
     h_psi:calbec :      0.26s CPU      0.33s WALL (    1583 calls)
     vloc_psi     :      2.81s CPU      3.09s WALL (    1583 calls)
     add_vuspsi   :      0.10s CPU      0.11s WALL (    1583 calls)

     General routines
     calbec       :      0.42s CPU      0.52s WALL (    2240 calls)
     fft          :      1.05s CPU      2.55s WALL (     732 calls)
     ffts         :      0.42s CPU      0.67s WALL (      88 calls)
     fftw         :      3.03s CPU      3.34s WALL (   59003 calls)
     interpolate  :      0.39s CPU      0.67s WALL (      45 calls)

     Parallel routines

     PWSCF        :     12.26s CPU     17.47s WALL


   This run was terminated on:  12:24:52   4Aug2025            

=------------------------------------------------------------------------------=
   JOB DONE.
=------------------------------------------------------------------------------=
