
     Program PWSCF v.7.2 starts on  6Aug2025 at  7:30:13 

     This program is part of the open-source Quantum ESPRESSO suite
     for quantum simulation of materials; please cite
         "P. Giannozzi et al., J. Phys.:Condens. Matter 21 395502 (2009);
         "P. Giannozzi et al., J. Phys.:Condens. Matter 29 465901 (2017);
         "P. Giannozzi et al., J. Chem. Phys. 152 154105 (2020);
          URL http://www.quantum-espresso.org", 
     in publications or presentations arising from this work. More details at
     http://www.quantum-espresso.org/quote

     Parallel version (MPI & OpenMP), running on     256 processor cores
     Number of MPI processes:               256
     Threads/MPI process:                     1

     MPI processes distributed on     4 nodes
     243146 MiB available memory on the printing compute node when the environment starts

     Reading input from LiAg_mp-2426_111_ontop_0.in

     Current dimensions of program PWSCF are:
     Max number of different atomic species (ntypx) = 10
     Max number of k-points (npk) =  40000
     Max angular momentum in pseudopotentials (lmaxx) =  4
     Message from routine iosys:
     restart disabled: needed files not found

     K-points division:     npool     =       4
     R & G space division:  proc/nbgrp/npool/nimage =      64
     Subspace diagonalization in iterative solution of the eigenvalue problem:
     a serial algorithm will be used


     Parallelization info
     --------------------
     sticks:   dense  smooth     PW     G-vecs:    dense   smooth      PW
     Min          37      16      4                 8235     2392     362
     Max          38      17      5                 8258     2433     403
     Sum        2407    1057    313               527639   153843   24959

     Using Slab Decomposition



     bravais-lattice index     =            0
     lattice parameter (alat)  =       8.3454  a.u.
     unit-cell volume          =    2793.3427 (a.u.)^3
     number of atoms/cell      =            7
     number of atomic types    =            2
     number of electrons       =        45.00
     number of Kohn-Sham states=           28
     kinetic-energy cutoff     =      55.0000  Ry
     charge density cutoff     =     500.0000  Ry
     scf convergence threshold =      1.0E-06
     mixing beta               =       0.3000
     number of iterations used =            8  plain     mixing
     energy convergence thresh.=      1.0E-04
     force convergence thresh. =      1.0E-03
     Exchange-correlation= PBE
                           (   1   4   3   4   0   0   0)
     nstep                     =          500


     celldm(1)=   8.345450  celldm(2)=   0.000000  celldm(3)=   0.000000
     celldm(4)=   0.000000  celldm(5)=   0.000000  celldm(6)=   0.000000

     crystal axes: (cart. coord. in units of alat)
               a(1) = (   1.000000   0.000000   0.000000 )  
               a(2) = (   0.500000   0.866025   0.000000 )  
               a(3) = (   0.000000   0.000000   5.549379 )  

     reciprocal axes: (cart. coord. in units 2 pi/alat)
               b(1) = (  1.000000 -0.577350  0.000000 )  
               b(2) = (  0.000000  1.154701  0.000000 )  
               b(3) = ( -0.000000 -0.000000  0.180200 )  


     PseudoPot. # 1 for Ag read from file:
     /home/ecastro/trabajo_final/pseudos/Ag.pbe-n-rrkjus_psl.1.0.0.UPF
     MD5 check sum: 81cdf87bacf708300839c66ee23ce017
     Pseudo is Ultrasoft + core correction, Zval = 11.0
     Generated using &quot;atomic&quot; code by A. Dal Corso  v.6.2.2
     Using radial grid of 1237 points,  6 beta functions with: 
                l(1) =   0
                l(2) =   0
                l(3) =   1
                l(4) =   1
                l(5) =   2
                l(6) =   2
     Q(r) pseudized with 0 coefficients 


     PseudoPot. # 2 for Li read from file:
     /home/ecastro/trabajo_final/pseudos/Li.pbe-s-rrkjus_psl.1.0.0.UPF
     MD5 check sum: 9f98d2529904d60b716d33989e9bc179
     Pseudo is Ultrasoft, Zval =  3.0
     Generated using &quot;atomic&quot; code by A. Dal Corso  v.6.3MaX
     Using radial grid of 1017 points,  4 beta functions with: 
                l(1) =   0
                l(2) =   0
                l(3) =   1
                l(4) =   1
     Q(r) pseudized with 0 coefficients 


     atomic species   valence    mass     pseudopotential
        Ag            11.00   107.86820     Ag( 1.00)
        Li             3.00     6.94100     Li( 1.00)

     No symmetry found



   Cartesian axes

     site n.     atom                  positions (alat units)
         1           Ag  tau(   1) = (   0.2500048   0.1443394   3.2487074  )
         2           Ag  tau(   2) = (   0.7500000   0.4330127   2.8767515  )
         3           Ag  tau(   3) = (   1.2500000   0.7216878   2.4685032  )
         4           Li  tau(   4) = (   1.2500020   0.7216887   3.0939233  )
         5           Li  tau(   5) = (   0.2500000   0.1443376   2.6726274  )
         6           Li  tau(   6) = (   0.7500000   0.4330127   2.2643791  )
         7           Li  tau(   7) = (   0.2500048   0.1443394   3.7015832  )

     --------------------------------------------
     DFT-D3 Dispersion Correction (no 3-body):
     --------------------------------------------
       Reference C6 values for interpolation: 

         atom   Coordination number   C6
         Li         0.000          2326.89
         Li         0.987           170.64
         Ag         0.000           853.49
         Ag         0.968           537.23

       Values used:

         atom   Coordination number  R0_AB[au]  C6      C8
         Ag         6.599            3.147    537.23  47741.54
         Ag         9.484            3.147    537.23  47741.54
         Ag         7.852            3.147    537.23  47741.54
         Li         8.618            3.303    170.64  12899.87
         Li        10.118            3.303    170.64  12899.87
         Li         5.641            3.303    170.64  12899.87
         Li         1.449            3.303    171.06  12931.36

         Molecular C6 ( Ry / a.u.^6 ) =     14510.82


     number of k points=    34  Methfessel-Paxton smearing, width (Ry)=  0.0300
                       cart. coord. in units 2pi/alat
        k(    1) = (   0.0000000   0.0000000   0.0000000), wk =   0.0312500
        k(    2) = (   0.0000000   0.1443376   0.0000000), wk =   0.0625000
        k(    3) = (   0.0000000   0.2886751   0.0000000), wk =   0.0625000
        k(    4) = (   0.0000000   0.4330127   0.0000000), wk =   0.0625000
        k(    5) = (   0.0000000  -0.5773503   0.0000000), wk =   0.0312500
        k(    6) = (   0.1250000  -0.0721688   0.0000000), wk =   0.0625000
        k(    7) = (   0.1250000   0.0721688   0.0000000), wk =   0.0625000
        k(    8) = (   0.1250000   0.2165064   0.0000000), wk =   0.0625000
        k(    9) = (   0.1250000   0.3608439   0.0000000), wk =   0.0625000
        k(   10) = (   0.1250000  -0.6495191   0.0000000), wk =   0.0625000
        k(   11) = (   0.1250000  -0.5051815   0.0000000), wk =   0.0625000
        k(   12) = (   0.1250000  -0.3608439   0.0000000), wk =   0.0625000
        k(   13) = (   0.1250000  -0.2165064   0.0000000), wk =   0.0625000
        k(   14) = (   0.2500000  -0.1443376   0.0000000), wk =   0.0625000
        k(   15) = (   0.2500000   0.0000000   0.0000000), wk =   0.0625000
        k(   16) = (   0.2500000   0.1443376   0.0000000), wk =   0.0625000
        k(   17) = (   0.2500000   0.2886751   0.0000000), wk =   0.0625000
        k(   18) = (   0.2500000  -0.7216878   0.0000000), wk =   0.0625000
        k(   19) = (   0.2500000  -0.5773503   0.0000000), wk =   0.0625000
        k(   20) = (   0.2500000  -0.4330127   0.0000000), wk =   0.0625000
        k(   21) = (   0.2500000  -0.2886751   0.0000000), wk =   0.0625000
        k(   22) = (   0.3750000  -0.2165064   0.0000000), wk =   0.0625000
        k(   23) = (   0.3750000  -0.0721688   0.0000000), wk =   0.0625000
        k(   24) = (   0.3750000   0.0721688   0.0000000), wk =   0.0625000
        k(   25) = (   0.3750000   0.2165064   0.0000000), wk =   0.0625000
        k(   26) = (   0.3750000  -0.7938566   0.0000000), wk =   0.0625000
        k(   27) = (   0.3750000  -0.6495191   0.0000000), wk =   0.0625000
        k(   28) = (   0.3750000  -0.5051815   0.0000000), wk =   0.0625000
        k(   29) = (   0.3750000  -0.3608439   0.0000000), wk =   0.0625000
        k(   30) = (  -0.5000000   0.2886751   0.0000000), wk =   0.0312500
        k(   31) = (  -0.5000000   0.4330127   0.0000000), wk =   0.0625000
        k(   32) = (  -0.5000000   0.5773503   0.0000000), wk =   0.0625000
        k(   33) = (  -0.5000000   0.7216878   0.0000000), wk =   0.0625000
        k(   34) = (  -0.5000000  -0.2886751   0.0000000), wk =   0.0312500

     Dense  grid:   527639 G-vectors     FFT dimensions: (  60,  60, 360)

     Smooth grid:   153843 G-vectors     FFT dimensions: (  40,  40, 225)

     Estimated max dynamical RAM per process >      16.75 MB

     Estimated total dynamical RAM >       3.81 GB
     Cannot read rho : file not found

     Initial potential from superposition of free atoms

     starting charge      44.9804, renormalised to      45.0000

     negative rho (up, down):  4.962E-05 0.000E+00
     Message from routine qexsd_readschema :
     xml data file ./LiAg_mp-2426_111_ontop_0/LiAg_mp-2426_111_ontop_0.save/data-file
     Cannot read wfcs: file not found
     Starting wfcs are   47 randomized atomic wfcs

     total cpu time spent up to now is        6.7 secs

     per-process dynamical memory:   173.6 Mb

     Self-consistent Calculation

     iteration #  1     ecut=    55.00 Ry     beta= 0.30
     Davidson diagonalization with overlap
     c_bands:  1 eigenvalues not converged
     ethr =  1.00E-05,  avg # of iterations = 15.5

     negative rho (up, down):  4.058E-05 0.000E+00

     total cpu time spent up to now is        7.9 secs

     total energy              =    -312.07054353 Ry
     estimated scf accuracy    <       0.63229770 Ry

     iteration #  2     ecut=    55.00 Ry     beta= 0.30
     Davidson diagonalization with overlap
     ethr =  1.41E-03,  avg # of iterations =  4.6

     negative rho (up, down):  9.588E-05 0.000E+00

     total cpu time spent up to now is        8.2 secs

     total energy              =    -311.97951026 Ry
     estimated scf accuracy    <       2.06402750 Ry

     iteration #  3     ecut=    55.00 Ry     beta= 0.30
     Davidson diagonalization with overlap
     ethr =  1.41E-03,  avg # of iterations =  2.8

     negative rho (up, down):  1.085E-04 0.000E+00

     total cpu time spent up to now is        8.5 secs

     total energy              =    -312.19332628 Ry
     estimated scf accuracy    <       0.93769738 Ry

     iteration #  4     ecut=    55.00 Ry     beta= 0.30
     Davidson diagonalization with overlap
     ethr =  1.41E-03,  avg # of iterations =  1.0

     negative rho (up, down):  7.826E-05 0.000E+00

     total cpu time spent up to now is        8.8 secs

     total energy              =    -312.22684627 Ry
     estimated scf accuracy    <       0.06500670 Ry

     iteration #  5     ecut=    55.00 Ry     beta= 0.30
     Davidson diagonalization with overlap
     ethr =  1.44E-04,  avg # of iterations =  1.9

     negative rho (up, down):  4.356E-05 0.000E+00

     total cpu time spent up to now is        9.0 secs

     total energy              =    -312.22599023 Ry
     estimated scf accuracy    <       0.01240375 Ry

     iteration #  6     ecut=    55.00 Ry     beta= 0.30
     Davidson diagonalization with overlap
     ethr =  2.76E-05,  avg # of iterations =  9.0

     negative rho (up, down):  2.883E-05 0.000E+00

     total cpu time spent up to now is        9.5 secs

     total energy              =    -312.22751211 Ry
     estimated scf accuracy    <       0.00543295 Ry

     iteration #  7     ecut=    55.00 Ry     beta= 0.30
     Davidson diagonalization with overlap
     ethr =  1.21E-05,  avg # of iterations =  2.7

     negative rho (up, down):  4.465E-05 0.000E+00

     total cpu time spent up to now is        9.8 secs

     total energy              =    -312.22818996 Ry
     estimated scf accuracy    <       0.00154999 Ry

     iteration #  8     ecut=    55.00 Ry     beta= 0.30
     Davidson diagonalization with overlap
     ethr =  3.44E-06,  avg # of iterations =  2.1

     negative rho (up, down):  5.480E-05 0.000E+00

     total cpu time spent up to now is       10.0 secs

     total energy              =    -312.22839167 Ry
     estimated scf accuracy    <       0.00013327 Ry

     iteration #  9     ecut=    55.00 Ry     beta= 0.30
     Davidson diagonalization with overlap
     ethr =  2.96E-07,  avg # of iterations =  3.1

     negative rho (up, down):  4.490E-05 0.000E+00

     total cpu time spent up to now is       10.3 secs

     total energy              =    -312.22840958 Ry
     estimated scf accuracy    <       0.00000498 Ry

     iteration # 10     ecut=    55.00 Ry     beta= 0.30
     Davidson diagonalization with overlap
     ethr =  1.11E-08,  avg # of iterations =  5.5

     negative rho (up, down):  3.203E-05 0.000E+00

     total cpu time spent up to now is       10.7 secs

     total energy              =    -312.22841062 Ry
     estimated scf accuracy    <       0.00001417 Ry

     iteration # 11     ecut=    55.00 Ry     beta= 0.30
     Davidson diagonalization with overlap
     ethr =  1.11E-08,  avg # of iterations =  2.1

     negative rho (up, down):  1.247E-05 0.000E+00

     total cpu time spent up to now is       10.9 secs

     End of self-consistent calculation

          k = 0.0000 0.0000 0.0000 ( 19117 PWs)   bands (ev):

   -48.2332 -46.9890 -46.2122 -46.0939  -5.8293  -5.5428  -5.5428  -5.4017
    -5.3167  -5.3167  -5.0155  -4.8210  -4.8210  -4.6992  -4.6992  -4.1998
    -4.1998  -4.1984  -3.8435  -3.8435  -3.4518  -1.2747  -0.0464   1.5273
     2.5016   2.7210   3.7023   4.1388

          k = 0.0000 0.1443 0.0000 ( 19191 PWs)   bands (ev):

   -48.2334 -46.9891 -46.2123 -46.0940  -5.7554  -5.5305  -5.5107  -5.3544
    -5.2962  -5.2772  -4.9781  -4.8245  -4.7990  -4.6940  -4.6870  -4.2364
    -4.2263  -4.1808  -3.9687  -3.8530  -3.2545  -1.1194   0.0957   1.6590
     2.4657   2.6698   2.8990   2.9654

          k = 0.0000 0.2887 0.0000 ( 19227 PWs)   bands (ev):

   -48.2334 -46.9891 -46.2122 -46.0940  -5.6444  -5.4726  -5.4390  -5.2866
    -5.1768  -5.1616  -4.9186  -4.7698  -4.7626  -4.6594  -4.5906  -4.3003
    -4.2993  -4.2130  -4.1297  -3.8772  -2.7618  -0.6773   0.2432   0.8452
     1.8818   2.0436   2.3421   3.1114

          k = 0.0000 0.4330 0.0000 ( 19265 PWs)   bands (ev):

   -48.2334 -46.9891 -46.2122 -46.0940  -5.6046  -5.4006  -5.3748  -5.1910
    -5.1048  -5.0116  -4.8902  -4.7209  -4.6879  -4.6111  -4.5939  -4.4103
    -4.3945  -4.1527  -3.8958  -3.8280  -2.0976  -1.1582   0.0457   0.6299
     1.1476   1.3976   2.4763   2.9199

          k = 0.0000-0.5774 0.0000 ( 19296 PWs)   bands (ev):

   -48.2334 -46.9891 -46.2122 -46.0941  -5.5970  -5.3700  -5.3498  -5.1419
    -5.0657  -4.9390  -4.8794  -4.7530  -4.6785  -4.5890  -4.5505  -4.5313
    -4.4674  -4.1460  -3.8976  -2.9378  -2.6943  -0.8923  -0.6058   0.8044
     0.8836   1.4912   2.2353   2.6995

          k = 0.1250-0.0722 0.0000 ( 19191 PWs)   bands (ev):

   -48.2334 -46.9891 -46.2123 -46.0940  -5.7554  -5.5305  -5.5107  -5.3544
    -5.2962  -5.2772  -4.9781  -4.8245  -4.7990  -4.6940  -4.6870  -4.2364
    -4.2263  -4.1808  -3.9687  -3.8530  -3.2545  -1.1194   0.0957   1.6590
     2.4657   2.6699   2.8990   2.9654

          k = 0.1250 0.0722 0.0000 ( 19191 PWs)   bands (ev):

   -48.2334 -46.9891 -46.2123 -46.0940  -5.7554  -5.5305  -5.5107  -5.3544
    -5.2962  -5.2772  -4.9781  -4.8245  -4.7990  -4.6940  -4.6870  -4.2364
    -4.2263  -4.1808  -3.9687  -3.8530  -3.2545  -1.1194   0.0957   1.6590
     2.4657   2.6698   2.8990   2.9654

          k = 0.1250 0.2165 0.0000 ( 19214 PWs)   bands (ev):

   -48.2334 -46.9891 -46.2123 -46.0940  -5.6570  -5.5095  -5.4528  -5.2723
    -5.2608  -5.1832  -4.9225  -4.8196  -4.7472  -4.6936  -4.6197  -4.3072
    -4.2457  -4.1818  -4.1135  -3.8821  -2.9165  -0.8180   0.3347   1.3598
     1.5950   2.0276   2.9386   3.1274

          k = 0.1250 0.3608 0.0000 ( 19244 PWs)   bands (ev):

   -48.2333 -46.9891 -46.2122 -46.0940  -5.5761  -5.4481  -5.3929  -5.2061
    -5.1334  -5.0688  -4.8778  -4.7801  -4.6869  -4.6559  -4.5211  -4.3953
    -4.2867  -4.1917  -4.1119  -3.8836  -2.3081  -0.4999  -0.1341   0.5943
     1.1082   1.7251   2.4585   2.9176

          k = 0.1250-0.6495 0.0000 ( 19267 PWs)   bands (ev):

   -48.2334 -46.9891 -46.2121 -46.0940  -5.5537  -5.3747  -5.3522  -5.1366
    -5.0807  -4.9782  -4.8482  -4.7495  -4.6952  -4.6024  -4.5714  -4.5035
    -4.3742  -4.1702  -4.0243  -3.2432  -2.1439  -1.1863  -0.1672   0.4861
     0.7085   1.7333   2.2222   2.5092

          k = 0.1250-0.5052 0.0000 ( 19267 PWs)   bands (ev):

   -48.2334 -46.9891 -46.2121 -46.0940  -5.5537  -5.3747  -5.3522  -5.1366
    -5.0807  -4.9782  -4.8482  -4.7495  -4.6952  -4.6024  -4.5714  -4.5035
    -4.3742  -4.1702  -4.0243  -3.2432  -2.1439  -1.1863  -0.1672   0.4861
     0.7085   1.7333   2.2222   2.5093

          k = 0.1250-0.3608 0.0000 ( 19244 PWs)   bands (ev):

   -48.2333 -46.9891 -46.2122 -46.0940  -5.5761  -5.4481  -5.3929  -5.2060
    -5.1334  -5.0688  -4.8778  -4.7801  -4.6869  -4.6559  -4.5211  -4.3953
    -4.2867  -4.1917  -4.1119  -3.8836  -2.3081  -0.4999  -0.1341   0.5943
     1.1082   1.7251   2.4585   2.9177

          k = 0.1250-0.2165 0.0000 ( 19214 PWs)   bands (ev):

   -48.2334 -46.9891 -46.2123 -46.0940  -5.6571  -5.5095  -5.4528  -5.2723
    -5.2608  -5.1832  -4.9225  -4.8196  -4.7472  -4.6936  -4.6197  -4.3073
    -4.2457  -4.1818  -4.1135  -3.8821  -2.9165  -0.8180   0.3347   1.3598
     1.5950   2.0276   2.9388   3.1297

          k = 0.2500-0.1443 0.0000 ( 19227 PWs)   bands (ev):

   -48.2334 -46.9891 -46.2122 -46.0940  -5.6444  -5.4726  -5.4390  -5.2866
    -5.1768  -5.1616  -4.9186  -4.7698  -4.7626  -4.6594  -4.5906  -4.3003
    -4.2993  -4.2130  -4.1297  -3.8772  -2.7618  -0.6773   0.2432   0.8452
     1.8818   2.0436   2.3421   3.1115

          k = 0.2500 0.0000 0.0000 ( 19214 PWs)   bands (ev):

   -48.2334 -46.9891 -46.2123 -46.0940  -5.6570  -5.5095  -5.4528  -5.2723
    -5.2608  -5.1832  -4.9225  -4.8196  -4.7472  -4.6936  -4.6197  -4.3072
    -4.2457  -4.1818  -4.1135  -3.8821  -2.9165  -0.8180   0.3347   1.3598
     1.5950   2.0276   2.9391   3.1276

          k = 0.2500 0.1443 0.0000 ( 19227 PWs)   bands (ev):

   -48.2334 -46.9891 -46.2122 -46.0940  -5.6444  -5.4726  -5.4390  -5.2866
    -5.1768  -5.1616  -4.9186  -4.7698  -4.7626  -4.6594  -4.5906  -4.3003
    -4.2993  -4.2130  -4.1297  -3.8772  -2.7618  -0.6773   0.2432   0.8452
     1.8818   2.0436   2.3421   3.1114

          k = 0.2500 0.2887 0.0000 ( 19244 PWs)   bands (ev):

   -48.2333 -46.9891 -46.2122 -46.0940  -5.5761  -5.4481  -5.3929  -5.2060
    -5.1334  -5.0688  -4.8778  -4.7801  -4.6869  -4.6559  -4.5211  -4.3953
    -4.2867  -4.1917  -4.1119  -3.8836  -2.3081  -0.4999  -0.1341   0.5943
     1.1082   1.7251   2.4585   2.9176

          k = 0.2500-0.7217 0.0000 ( 19252 PWs)   bands (ev):

   -48.2333 -46.9890 -46.2121 -46.0940  -5.4751  -5.4191  -5.3559  -5.1411
    -5.0830  -4.9887  -4.8439  -4.7656  -4.7015  -4.5922  -4.5386  -4.4916
    -4.2975  -4.2095  -4.1686  -3.3614  -1.7334  -1.1974  -0.4617   0.5516
     1.1467   1.2374   2.0076   2.6948

          k = 0.2500-0.5774 0.0000 ( 19252 PWs)   bands (ev):

   -48.2333 -46.9890 -46.2121 -46.0940  -5.4479  -5.3687  -5.3377  -5.1390
    -5.0653  -4.9734  -4.7991  -4.7414  -4.6973  -4.6496  -4.5377  -4.4453
    -4.3319  -4.2723  -4.2085  -2.4213  -2.3918  -1.4360  -0.1435   0.1307
     1.0496   1.3662   1.8448   2.6884

          k = 0.2500-0.4330 0.0000 ( 19252 PWs)   bands (ev):

   -48.2333 -46.9890 -46.2121 -46.0940  -5.4751  -5.4191  -5.3559  -5.1411
    -5.0830  -4.9887  -4.8439  -4.7656  -4.7015  -4.5922  -4.5386  -4.4916
    -4.2975  -4.2095  -4.1686  -3.3614  -1.7335  -1.1974  -0.4617   0.5516
     1.1467   1.2374   2.0076   2.6948

          k = 0.2500-0.2887 0.0000 ( 19244 PWs)   bands (ev):

   -48.2333 -46.9891 -46.2122 -46.0940  -5.5761  -5.4481  -5.3929  -5.2061
    -5.1334  -5.0688  -4.8778  -4.7801  -4.6869  -4.6559  -4.5211  -4.3953
    -4.2867  -4.1917  -4.1119  -3.8836  -2.3081  -0.4999  -0.1341   0.5943
     1.1082   1.7251   2.4585   2.9178

          k = 0.3750-0.2165 0.0000 ( 19265 PWs)   bands (ev):

   -48.2334 -46.9891 -46.2122 -46.0940  -5.6046  -5.4006  -5.3748  -5.1910
    -5.1048  -5.0116  -4.8902  -4.7209  -4.6879  -4.6111  -4.5939  -4.4103
    -4.3945  -4.1527  -3.8958  -3.8280  -2.0976  -1.1582   0.0457   0.6299
     1.1476   1.3976   2.4763   2.9199

          k = 0.3750-0.0722 0.0000 ( 19244 PWs)   bands (ev):

   -48.2333 -46.9891 -46.2122 -46.0940  -5.5761  -5.4481  -5.3929  -5.2061
    -5.1334  -5.0688  -4.8778  -4.7801  -4.6869  -4.6559  -4.5211  -4.3953
    -4.2867  -4.1917  -4.1119  -3.8836  -2.3081  -0.4999  -0.1341   0.5943
     1.1082   1.7251   2.4585   2.9177

          k = 0.3750 0.0722 0.0000 ( 19244 PWs)   bands (ev):

   -48.2333 -46.9891 -46.2122 -46.0940  -5.5761  -5.4481  -5.3929  -5.2060
    -5.1334  -5.0688  -4.8778  -4.7801  -4.6869  -4.6559  -4.5211  -4.3953
    -4.2867  -4.1917  -4.1119  -3.8836  -2.3081  -0.4999  -0.1341   0.5943
     1.1082   1.7251   2.4585   2.9178

          k = 0.3750 0.2165 0.0000 ( 19265 PWs)   bands (ev):

   -48.2334 -46.9891 -46.2122 -46.0940  -5.6046  -5.4006  -5.3748  -5.1910
    -5.1048  -5.0116  -4.8902  -4.7209  -4.6879  -4.6111  -4.5939  -4.4103
    -4.3945  -4.1527  -3.8958  -3.8280  -2.0975  -1.1582   0.0457   0.6299
     1.1476   1.3976   2.4764   2.9202

          k = 0.3750-0.7939 0.0000 ( 19267 PWs)   bands (ev):

   -48.2334 -46.9891 -46.2121 -46.0940  -5.5537  -5.3747  -5.3522  -5.1366
    -5.0807  -4.9782  -4.8482  -4.7495  -4.6952  -4.6024  -4.5714  -4.5035
    -4.3742  -4.1702  -4.0243  -3.2432  -2.1439  -1.1863  -0.1672   0.4861
     0.7085   1.7333   2.2222   2.5093

          k = 0.3750-0.6495 0.0000 ( 19252 PWs)   bands (ev):

   -48.2333 -46.9890 -46.2121 -46.0940  -5.4479  -5.3687  -5.3377  -5.1390
    -5.0653  -4.9734  -4.7991  -4.7414  -4.6973  -4.6496  -4.5377  -4.4453
    -4.3319  -4.2723  -4.2085  -2.4213  -2.3917  -1.4360  -0.1434   0.1307
     1.0496   1.3662   1.8449   2.6884

          k = 0.3750-0.5052 0.0000 ( 19252 PWs)   bands (ev):

   -48.2333 -46.9890 -46.2121 -46.0940  -5.4479  -5.3687  -5.3377  -5.1390
    -5.0653  -4.9734  -4.7991  -4.7414  -4.6973  -4.6496  -4.5377  -4.4453
    -4.3319  -4.2723  -4.2085  -2.4213  -2.3918  -1.4360  -0.1435   0.1307
     1.0496   1.3662   1.8449   2.6888

          k = 0.3750-0.3608 0.0000 ( 19267 PWs)   bands (ev):

   -48.2334 -46.9891 -46.2121 -46.0940  -5.5537  -5.3747  -5.3522  -5.1366
    -5.0807  -4.9782  -4.8482  -4.7495  -4.6952  -4.6024  -4.5714  -4.5035
    -4.3742  -4.1702  -4.0243  -3.2432  -2.1439  -1.1863  -0.1672   0.4861
     0.7085   1.7333   2.2222   2.5093

          k =-0.5000 0.2887 0.0000 ( 19296 PWs)   bands (ev):

   -48.2334 -46.9891 -46.2122 -46.0941  -5.5970  -5.3700  -5.3498  -5.1419
    -5.0657  -4.9390  -4.8794  -4.7530  -4.6785  -4.5890  -4.5505  -4.5313
    -4.4674  -4.1460  -3.8976  -2.9378  -2.6943  -0.8923  -0.6058   0.8044
     0.8836   1.4912   2.2352   2.6996

          k =-0.5000 0.4330 0.0000 ( 19267 PWs)   bands (ev):

   -48.2334 -46.9891 -46.2121 -46.0940  -5.5537  -5.3747  -5.3522  -5.1366
    -5.0807  -4.9782  -4.8482  -4.7495  -4.6952  -4.6024  -4.5714  -4.5035
    -4.3742  -4.1702  -4.0243  -3.2432  -2.1439  -1.1863  -0.1672   0.4861
     0.7085   1.7333   2.2222   2.5093

          k =-0.5000 0.5774 0.0000 ( 19252 PWs)   bands (ev):

   -48.2333 -46.9890 -46.2121 -46.0940  -5.4751  -5.4191  -5.3559  -5.1411
    -5.0830  -4.9887  -4.8439  -4.7656  -4.7015  -4.5922  -4.5386  -4.4916
    -4.2975  -4.2095  -4.1686  -3.3614  -1.7334  -1.1974  -0.4617   0.5516
     1.1467   1.2374   2.0076   2.6948

          k =-0.5000 0.7217 0.0000 ( 19267 PWs)   bands (ev):

   -48.2334 -46.9891 -46.2121 -46.0940  -5.5537  -5.3747  -5.3522  -5.1366
    -5.0807  -4.9782  -4.8482  -4.7495  -4.6952  -4.6024  -4.5714  -4.5035
    -4.3742  -4.1702  -4.0243  -3.2432  -2.1439  -1.1863  -0.1672   0.4861
     0.7085   1.7333   2.2222   2.5093

          k =-0.5000-0.2887 0.0000 ( 19296 PWs)   bands (ev):

   -48.2334 -46.9891 -46.2122 -46.0941  -5.5970  -5.3700  -5.3498  -5.1419
    -5.0658  -4.9390  -4.8794  -4.7530  -4.6786  -4.5890  -4.5505  -4.5313
    -4.4674  -4.1460  -3.8976  -2.9378  -2.6943  -0.8923  -0.6058   0.8044
     0.8836   1.4912   2.2352   2.6995

     the Fermi energy is    -0.0759 ev

!    total energy              =    -312.22841216 Ry
     estimated scf accuracy    <       0.00000020 Ry
     smearing contrib. (-TS)   =      -0.00105935 Ry
     internal energy E=F+TS    =    -312.22735281 Ry

     The total energy is F=E-TS. E is the sum of the following terms:
     one-electron contribution =   -1955.98670209 Ry
     hartree contribution      =     994.06727719 Ry
     xc contribution           =     -81.38374003 Ry
     ewald contribution        =     731.16237940 Ry
     DFT-D3 Dispersion         =      -0.08656728 Ry

     convergence has been achieved in  11 iterations

     negative rho (up, down):  1.247E-05 0.000E+00

     Forces acting on atoms (cartesian axes, Ry/au):

     atom    1 type  1   force =     0.00000018    0.00000062   -0.10172144
     atom    2 type  1   force =     0.00000073   -0.00000036    0.00699304
     atom    3 type  1   force =     0.00000124   -0.00000038    0.01311979
     atom    4 type  2   force =    -0.00000066    0.00000046    0.00760024
     atom    5 type  2   force =    -0.00000058    0.00000019   -0.01812377
     atom    6 type  2   force =    -0.00000056   -0.00000083   -0.00596133
     atom    7 type  2   force =    -0.00000035    0.00000031    0.09809347
     The non-local contrib.  to forces
     atom    1 type  1   force =     0.00000157    0.00000266    0.18659771
     atom    2 type  1   force =     0.00000246   -0.00000052    0.02375620
     atom    3 type  1   force =     0.00000043   -0.00000186    0.00315941
     atom    4 type  2   force =    -0.00000026    0.00000041    0.01154103
     atom    5 type  2   force =    -0.00000023    0.00000014   -0.01137374
     atom    6 type  2   force =     0.00000005   -0.00000017   -0.06231482
     atom    7 type  2   force =     0.00000004    0.00000050    0.08432434
     The ionic contribution  to forces
     atom    1 type  1   force =    -0.00007838   -0.00002903   41.40577123
     atom    2 type  1   force =     0.00007699    0.00002998    1.43430668
     atom    3 type  1   force =     0.00000090    0.00000018  -45.71438788
     atom    4 type  2   force =     0.00001260    0.00000339    7.89619367
     atom    5 type  2   force =    -0.00001106   -0.00000415   -7.31679433
     atom    6 type  2   force =     0.00000038    0.00000015  -17.30427367
     atom    7 type  2   force =    -0.00000143   -0.00000053   19.59918429
     The local contribution  to forces
     atom    1 type  1   force =     0.00007587    0.00002912  -41.70145858
     atom    2 type  1   force =    -0.00007554   -0.00003192   -1.44968829
     atom    3 type  1   force =    -0.00000556   -0.00000469   45.72080954
     atom    4 type  2   force =    -0.00001298   -0.00000383   -7.89880472
     atom    5 type  2   force =     0.00001017    0.00000422    7.30914637
     atom    6 type  2   force =     0.00000094    0.00000168   17.35917898
     atom    7 type  2   force =     0.00000108    0.00000170  -19.58340381
     The core correction contribution to forces
     atom    1 type  1   force =     0.00000008   -0.00000002    0.00930193
     atom    2 type  1   force =    -0.00000017   -0.00000016   -0.00240803
     atom    3 type  1   force =    -0.00000027   -0.00000009    0.00224397
     atom    4 type  2   force =     0.00000000    0.00000000    0.00000000
     atom    5 type  2   force =     0.00000000    0.00000000    0.00000000
     atom    6 type  2   force =     0.00000000    0.00000000    0.00000000
     atom    7 type  2   force =     0.00000000    0.00000000    0.00000000
     The Hubbard contrib.    to forces
     atom    1 type  1   force =     0.00000000    0.00000000    0.00000000
     atom    2 type  1   force =     0.00000000    0.00000000    0.00000000
     atom    3 type  1   force =     0.00000000    0.00000000    0.00000000
     atom    4 type  2   force =     0.00000000    0.00000000    0.00000000
     atom    5 type  2   force =     0.00000000    0.00000000    0.00000000
     atom    6 type  2   force =     0.00000000    0.00000000    0.00000000
     atom    7 type  2   force =     0.00000000    0.00000000    0.00000000
     The SCF correction term to forces
     atom    1 type  1   force =     0.00000150   -0.00000204    0.00002036
     atom    2 type  1   force =    -0.00000236    0.00000240    0.00003421
     atom    3 type  1   force =     0.00000630    0.00000617   -0.00021945
     atom    4 type  2   force =     0.00000052    0.00000058   -0.00009300
     atom    5 type  2   force =     0.00000111    0.00000008    0.00000704
     atom    6 type  2   force =    -0.00000137   -0.00000239   -0.00017377
     atom    7 type  2   force =     0.00000052   -0.00000127    0.00015865

     DFT-D3 dispersion contribution to forces:
     atom    1 type  1   force =     0.00000011    0.00000004   -0.00190530
     atom    2 type  1   force =    -0.00000010   -0.00000004    0.00104106
     atom    3 type  1   force =    -0.00000000   -0.00000000    0.00156300
     atom    4 type  2   force =     0.00000001    0.00000000   -0.00118796
     atom    5 type  2   force =    -0.00000001   -0.00000000    0.00093967
     atom    6 type  2   force =     0.00000000    0.00000000    0.00167074
     atom    7 type  2   force =    -0.00000000   -0.00000000   -0.00212121

     Total force =     0.143570     Total SCF correction =     0.000338


     Computing stress (Cartesian axis) and pressure


     negative rho (up, down):  1.247E-05 0.000E+00
          total   stress  (Ry/bohr**3)                   (kbar)     P=       -1.17
  -0.00006544  -0.00000000  -0.00000000           -9.63       -0.00       -0.00
  -0.00000000  -0.00006544  -0.00000000           -0.00       -9.63       -0.00
  -0.00000000  -0.00000000   0.00010708           -0.00       -0.00       15.75


     BFGS Geometry Optimization
     Energy error            =      0.0E+00 Ry
     Gradient error          =      1.0E-01 Ry/Bohr

     number of scf cycles    =   1
     number of bfgs steps    =   0

     energy             new  =    -312.2284121578 Ry

     new trust radius        =       0.1017214353 bohr
     new conv_thr            =       0.0000010000 Ry


ATOMIC_POSITIONS (angstrom)
Ag            1.1040769202        0.6374351763       14.2931836222
Ag            3.3121666793        1.9122799106       12.7080730139
Ag            5.5202778133        3.1871333001       10.9084001795
Li            5.5202858260        3.1871375905       13.6674729917
Li            1.1040551246        0.6374268001       11.7933242829
Li            3.3121660000        1.9122796617        9.9968453999
Li            1.1040766390        0.6374350104       16.3989211151



     Writing config-only to output data dir ./LiAg_mp-2426_111_ontop_0/LiAg_mp-2426_111_ontop_0.save/
     NEW-OLD atomic charge density approx. for the potential

     negative rho (up, down):  1.728E-05 0.000E+00

     total cpu time spent up to now is       12.0 secs

     per-process dynamical memory:   180.6 Mb

     Self-consistent Calculation

     iteration #  1     ecut=    55.00 Ry     beta= 0.30
     Davidson diagonalization with overlap
     ethr =  1.00E-06,  avg # of iterations = 10.1

     negative rho (up, down):  1.501E-05 0.000E+00

     total cpu time spent up to now is       12.9 secs

     total energy              =    -312.24514197 Ry
     estimated scf accuracy    <       0.00071753 Ry

     iteration #  2     ecut=    55.00 Ry     beta= 0.30
     Davidson diagonalization with overlap
     ethr =  1.59E-06,  avg # of iterations =  2.0

     negative rho (up, down):  2.485E-05 0.000E+00

     total cpu time spent up to now is       13.1 secs

     total energy              =    -312.24503222 Ry
     estimated scf accuracy    <       0.00218250 Ry

     iteration #  3     ecut=    55.00 Ry     beta= 0.30
     Davidson diagonalization with overlap
     ethr =  1.59E-06,  avg # of iterations =  2.0

     negative rho (up, down):  1.830E-05 0.000E+00

     total cpu time spent up to now is       13.4 secs

     total energy              =    -312.24522119 Ry
     estimated scf accuracy    <       0.00091916 Ry

     iteration #  4     ecut=    55.00 Ry     beta= 0.30
     Davidson diagonalization with overlap
     ethr =  1.59E-06,  avg # of iterations =  1.0

     negative rho (up, down):  1.341E-05 0.000E+00

     total cpu time spent up to now is       13.6 secs

     total energy              =    -312.24526652 Ry
     estimated scf accuracy    <       0.00001796 Ry

     iteration #  5     ecut=    55.00 Ry     beta= 0.30
     Davidson diagonalization with overlap
     ethr =  3.99E-08,  avg # of iterations =  2.0

     negative rho (up, down):  1.285E-05 0.000E+00

     total cpu time spent up to now is       13.9 secs

     total energy              =    -312.24526887 Ry
     estimated scf accuracy    <       0.00001075 Ry

     iteration #  6     ecut=    55.00 Ry     beta= 0.30
     Davidson diagonalization with overlap
     ethr =  2.39E-08,  avg # of iterations =  2.0

     negative rho (up, down):  1.813E-05 0.000E+00

     total cpu time spent up to now is       14.1 secs

     total energy              =    -312.24527043 Ry
     estimated scf accuracy    <       0.00000187 Ry

     iteration #  7     ecut=    55.00 Ry     beta= 0.30
     Davidson diagonalization with overlap
     ethr =  4.16E-09,  avg # of iterations =  4.6

     negative rho (up, down):  1.258E-05 0.000E+00

     total cpu time spent up to now is       14.4 secs

     End of self-consistent calculation

          k = 0.0000 0.0000 0.0000 ( 19117 PWs)   bands (ev):

   -48.2166 -47.0102 -46.2162 -46.0957  -5.8463  -5.5408  -5.5407  -5.3712
    -5.3367  -5.3367  -5.0101  -4.8207  -4.8207  -4.6506  -4.6506  -4.1997
    -4.1823  -4.1823  -3.8268  -3.8268  -3.4454  -1.2950  -0.0808   1.5010
     2.5049   2.7300   3.7092   4.1658

          k = 0.0000 0.1443 0.0000 ( 19191 PWs)   bands (ev):

   -48.2167 -47.0103 -46.2163 -46.0958  -5.7657  -5.5244  -5.5054  -5.3472
    -5.2996  -5.2964  -4.9745  -4.8199  -4.7947  -4.6515  -4.6413  -4.2329
    -4.2107  -4.1696  -3.9544  -3.8364  -3.2472  -1.1407   0.0612   1.6313
     2.4670   2.6731   2.9067   2.9695

          k = 0.0000 0.2887 0.0000 ( 19227 PWs)   bands (ev):

   -48.2167 -47.0103 -46.2162 -46.0958  -5.6399  -5.4531  -5.4265  -5.2969
    -5.1746  -5.1731  -4.9165  -4.7605  -4.7478  -4.6356  -4.5538  -4.3023
    -4.2901  -4.2003  -4.1239  -3.8604  -2.7539  -0.6993   0.2279   0.8147
     1.8786   2.0218   2.3465   3.1120

          k = 0.0000 0.4330 0.0000 ( 19265 PWs)   bands (ev):

   -48.2167 -47.0103 -46.2162 -46.0958  -5.5942  -5.3750  -5.3547  -5.1791
    -5.1029  -5.0065  -4.8859  -4.7148  -4.6854  -4.5969  -4.5734  -4.4102
    -4.3949  -4.1463  -3.8779  -3.8304  -2.0910  -1.1610   0.0226   0.6275
     1.1393   1.3584   2.4451   2.8701

          k = 0.0000-0.5774 0.0000 ( 19296 PWs)   bands (ev):

   -48.2168 -47.0103 -46.2162 -46.0959  -5.5856  -5.3414  -5.3260  -5.1057
    -5.0773  -4.9169  -4.8741  -4.7423  -4.6828  -4.5909  -4.5438  -4.5350
    -4.4673  -4.1373  -3.8791  -2.9542  -2.6890  -0.8935  -0.5887   0.7754
     0.8733   1.4456   2.1841   2.6654

          k = 0.1250-0.0722 0.0000 ( 19191 PWs)   bands (ev):

   -48.2167 -47.0103 -46.2163 -46.0958  -5.7657  -5.5244  -5.5054  -5.3471
    -5.2996  -5.2964  -4.9745  -4.8199  -4.7947  -4.6515  -4.6413  -4.2329
    -4.2107  -4.1696  -3.9544  -3.8364  -3.2472  -1.1407   0.0612   1.6313
     2.4670   2.6731   2.9067   2.9694

          k = 0.1250 0.0722 0.0000 ( 19191 PWs)   bands (ev):

   -48.2167 -47.0103 -46.2163 -46.0958  -5.7657  -5.5244  -5.5054  -5.3471
    -5.2996  -5.2964  -4.9745  -4.8199  -4.7947  -4.6515  -4.6413  -4.2329
    -4.2107  -4.1696  -3.9544  -3.8364  -3.2472  -1.1407   0.0612   1.6313
     2.4670   2.6731   2.9067   2.9694

          k = 0.1250 0.2165 0.0000 ( 19214 PWs)   bands (ev):

   -48.2167 -47.0103 -46.2162 -46.0958  -5.6554  -5.4955  -5.4407  -5.2870
    -5.2690  -5.1827  -4.9211  -4.8084  -4.7405  -4.6593  -4.5810  -4.3057
    -4.2341  -4.1685  -4.1077  -3.8656  -2.9088  -0.8403   0.3030   1.3559
     1.5793   2.0063   2.9385   3.1357

          k = 0.1250 0.3608 0.0000 ( 19244 PWs)   bands (ev):

   -48.2167 -47.0102 -46.2161 -46.0958  -5.5640  -5.4236  -5.3730  -5.2113
    -5.1428  -5.0594  -4.8720  -4.7702  -4.6803  -4.6384  -4.5053  -4.3762
    -4.2802  -4.1960  -4.1100  -3.8687  -2.3005  -0.5039  -0.1597   0.5850
     1.0736   1.7230   2.4376   2.9269

          k = 0.1250-0.6495 0.0000 ( 19267 PWs)   bands (ev):

   -48.2167 -47.0102 -46.2161 -46.0958  -5.5384  -5.3431  -5.3224  -5.1236
    -5.0900  -4.9634  -4.8396  -4.7481  -4.6867  -4.5987  -4.5638  -4.4999
    -4.3755  -4.1656  -4.0083  -3.2481  -2.1461  -1.1832  -0.1633   0.4823
     0.6791   1.6906   2.1848   2.5019

          k = 0.1250-0.5052 0.0000 ( 19267 PWs)   bands (ev):

   -48.2167 -47.0102 -46.2161 -46.0958  -5.5384  -5.3431  -5.3223  -5.1236
    -5.0900  -4.9634  -4.8396  -4.7481  -4.6867  -4.5987  -4.5638  -4.4999
    -4.3755  -4.1656  -4.0083  -3.2481  -2.1461  -1.1832  -0.1633   0.4823
     0.6791   1.6906   2.1848   2.5019

          k = 0.1250-0.3608 0.0000 ( 19244 PWs)   bands (ev):

   -48.2167 -47.0102 -46.2161 -46.0958  -5.5640  -5.4236  -5.3730  -5.2113
    -5.1428  -5.0594  -4.8720  -4.7702  -4.6803  -4.6384  -4.5053  -4.3762
    -4.2802  -4.1960  -4.1100  -3.8687  -2.3005  -0.5039  -0.1597   0.5850
     1.0736   1.7230   2.4376   2.9269

          k = 0.1250-0.2165 0.0000 ( 19214 PWs)   bands (ev):

   -48.2167 -47.0103 -46.2162 -46.0958  -5.6554  -5.4955  -5.4407  -5.2870
    -5.2690  -5.1826  -4.9211  -4.8084  -4.7405  -4.6593  -4.5810  -4.3057
    -4.2341  -4.1685  -4.1077  -3.8656  -2.9088  -0.8403   0.3030   1.3559
     1.5793   2.0063   2.9385   3.1358

          k = 0.2500-0.1443 0.0000 ( 19227 PWs)   bands (ev):

   -48.2167 -47.0103 -46.2162 -46.0958  -5.6399  -5.4531  -5.4265  -5.2969
    -5.1746  -5.1731  -4.9165  -4.7605  -4.7478  -4.6356  -4.5538  -4.3023
    -4.2901  -4.2003  -4.1239  -3.8604  -2.7539  -0.6993   0.2279   0.8147
     1.8786   2.0218   2.3465   3.1120

          k = 0.2500 0.0000 0.0000 ( 19214 PWs)   bands (ev):

   -48.2167 -47.0103 -46.2162 -46.0958  -5.6554  -5.4955  -5.4407  -5.2870
    -5.2690  -5.1827  -4.9211  -4.8084  -4.7405  -4.6593  -4.5810  -4.3057
    -4.2341  -4.1685  -4.1077  -3.8656  -2.9088  -0.8403   0.3030   1.3559
     1.5793   2.0063   2.9385   3.1359

          k = 0.2500 0.1443 0.0000 ( 19227 PWs)   bands (ev):

   -48.2167 -47.0103 -46.2162 -46.0958  -5.6399  -5.4531  -5.4265  -5.2969
    -5.1746  -5.1731  -4.9165  -4.7605  -4.7478  -4.6356  -4.5538  -4.3023
    -4.2901  -4.2003  -4.1239  -3.8604  -2.7539  -0.6993   0.2279   0.8147
     1.8786   2.0218   2.3465   3.1120

          k = 0.2500 0.2887 0.0000 ( 19244 PWs)   bands (ev):

   -48.2167 -47.0102 -46.2161 -46.0958  -5.5640  -5.4236  -5.3730  -5.2113
    -5.1428  -5.0594  -4.8720  -4.7702  -4.6803  -4.6384  -4.5053  -4.3762
    -4.2802  -4.1960  -4.1100  -3.8687  -2.3005  -0.5039  -0.1597   0.5850
     1.0736   1.7230   2.4376   2.9269

          k = 0.2500-0.7217 0.0000 ( 19252 PWs)   bands (ev):

   -48.2167 -47.0102 -46.2161 -46.0958  -5.4496  -5.3897  -5.3261  -5.1329
    -5.1060  -4.9740  -4.8370  -4.7550  -4.6938  -4.5945  -4.5404  -4.4615
    -4.3017  -4.2056  -4.1578  -3.3637  -1.7303  -1.2012  -0.4670   0.5269
     1.1440   1.2338   1.9798   2.6561

          k = 0.2500-0.5774 0.0000 ( 19252 PWs)   bands (ev):

   -48.2167 -47.0102 -46.2160 -46.0958  -5.4178  -5.3269  -5.3010  -5.1416
    -5.0835  -4.9702  -4.7839  -4.7458  -4.6889  -4.6319  -4.5235  -4.4503
    -4.3382  -4.2711  -4.1916  -2.4255  -2.3986  -1.4419  -0.1384   0.1356
     1.0507   1.3477   1.8024   2.6189

          k = 0.2500-0.4330 0.0000 ( 19252 PWs)   bands (ev):

   -48.2167 -47.0102 -46.2161 -46.0958  -5.4496  -5.3897  -5.3261  -5.1329
    -5.1060  -4.9740  -4.8370  -4.7550  -4.6938  -4.5945  -4.5404  -4.4615
    -4.3017  -4.2056  -4.1578  -3.3637  -1.7304  -1.2012  -0.4670   0.5269
     1.1440   1.2338   1.9798   2.6560

          k = 0.2500-0.2887 0.0000 ( 19244 PWs)   bands (ev):

   -48.2167 -47.0102 -46.2161 -46.0958  -5.5640  -5.4236  -5.3730  -5.2113
    -5.1428  -5.0594  -4.8720  -4.7702  -4.6803  -4.6384  -4.5053  -4.3762
    -4.2802  -4.1960  -4.1100  -3.8687  -2.3005  -0.5039  -0.1597   0.5850
     1.0736   1.7230   2.4376   2.9269

          k = 0.3750-0.2165 0.0000 ( 19265 PWs)   bands (ev):

   -48.2167 -47.0103 -46.2162 -46.0958  -5.5942  -5.3750  -5.3547  -5.1791
    -5.1029  -5.0065  -4.8859  -4.7147  -4.6854  -4.5969  -4.5734  -4.4102
    -4.3949  -4.1463  -3.8779  -3.8304  -2.0910  -1.1610   0.0226   0.6275
     1.1393   1.3584   2.4451   2.8701

          k = 0.3750-0.0722 0.0000 ( 19244 PWs)   bands (ev):

   -48.2167 -47.0102 -46.2161 -46.0958  -5.5640  -5.4236  -5.3730  -5.2113
    -5.1428  -5.0594  -4.8720  -4.7702  -4.6803  -4.6384  -4.5053  -4.3762
    -4.2802  -4.1960  -4.1100  -3.8687  -2.3005  -0.5039  -0.1597   0.5850
     1.0736   1.7230   2.4376   2.9269

          k = 0.3750 0.0722 0.0000 ( 19244 PWs)   bands (ev):

   -48.2167 -47.0102 -46.2161 -46.0958  -5.5640  -5.4236  -5.3730  -5.2113
    -5.1428  -5.0594  -4.8720  -4.7702  -4.6803  -4.6384  -4.5053  -4.3762
    -4.2802  -4.1960  -4.1100  -3.8687  -2.3005  -0.5039  -0.1597   0.5850
     1.0736   1.7230   2.4376   2.9269

          k = 0.3750 0.2165 0.0000 ( 19265 PWs)   bands (ev):

   -48.2167 -47.0103 -46.2162 -46.0958  -5.5942  -5.3750  -5.3547  -5.1791
    -5.1029  -5.0065  -4.8859  -4.7148  -4.6854  -4.5969  -4.5734  -4.4102
    -4.3949  -4.1464  -3.8780  -3.8304  -2.0910  -1.1610   0.0226   0.6276
     1.1393   1.3584   2.4451   2.8701

          k = 0.3750-0.7939 0.0000 ( 19267 PWs)   bands (ev):

   -48.2167 -47.0102 -46.2161 -46.0958  -5.5384  -5.3431  -5.3223  -5.1236
    -5.0900  -4.9634  -4.8396  -4.7481  -4.6867  -4.5987  -4.5638  -4.4999
    -4.3755  -4.1656  -4.0083  -3.2481  -2.1461  -1.1832  -0.1633   0.4823
     0.6791   1.6906   2.1848   2.5019

          k = 0.3750-0.6495 0.0000 ( 19252 PWs)   bands (ev):

   -48.2167 -47.0102 -46.2160 -46.0958  -5.4178  -5.3269  -5.3010  -5.1416
    -5.0835  -4.9702  -4.7839  -4.7458  -4.6889  -4.6319  -4.5235  -4.4504
    -4.3382  -4.2711  -4.1916  -2.4255  -2.3986  -1.4419  -0.1384   0.1356
     1.0507   1.3477   1.8024   2.6189

          k = 0.3750-0.5052 0.0000 ( 19252 PWs)   bands (ev):

   -48.2167 -47.0102 -46.2160 -46.0958  -5.4178  -5.3269  -5.3010  -5.1416
    -5.0835  -4.9702  -4.7839  -4.7458  -4.6889  -4.6319  -4.5235  -4.4503
    -4.3382  -4.2711  -4.1916  -2.4255  -2.3986  -1.4419  -0.1384   0.1356
     1.0507   1.3477   1.8024   2.6188

          k = 0.3750-0.3608 0.0000 ( 19267 PWs)   bands (ev):

   -48.2167 -47.0102 -46.2161 -46.0958  -5.5384  -5.3431  -5.3223  -5.1236
    -5.0900  -4.9634  -4.8396  -4.7481  -4.6867  -4.5987  -4.5638  -4.4999
    -4.3755  -4.1656  -4.0083  -3.2481  -2.1461  -1.1832  -0.1633   0.4823
     0.6791   1.6906   2.1848   2.5019

          k =-0.5000 0.2887 0.0000 ( 19296 PWs)   bands (ev):

   -48.2168 -47.0103 -46.2162 -46.0959  -5.5856  -5.3414  -5.3260  -5.1057
    -5.0773  -4.9169  -4.8741  -4.7423  -4.6828  -4.5909  -4.5438  -4.5350
    -4.4673  -4.1373  -3.8791  -2.9542  -2.6890  -0.8935  -0.5887   0.7754
     0.8733   1.4456   2.1841   2.6654

          k =-0.5000 0.4330 0.0000 ( 19267 PWs)   bands (ev):

   -48.2167 -47.0102 -46.2161 -46.0958  -5.5384  -5.3431  -5.3224  -5.1236
    -5.0900  -4.9634  -4.8396  -4.7481  -4.6867  -4.5987  -4.5638  -4.4999
    -4.3755  -4.1656  -4.0083  -3.2481  -2.1461  -1.1832  -0.1633   0.4823
     0.6791   1.6906   2.1848   2.5019

          k =-0.5000 0.5774 0.0000 ( 19252 PWs)   bands (ev):

   -48.2167 -47.0102 -46.2161 -46.0958  -5.4496  -5.3897  -5.3261  -5.1329
    -5.1060  -4.9740  -4.8370  -4.7550  -4.6938  -4.5945  -4.5404  -4.4615
    -4.3017  -4.2056  -4.1578  -3.3637  -1.7303  -1.2012  -0.4670   0.5269
     1.1440   1.2338   1.9798   2.6561

          k =-0.5000 0.7217 0.0000 ( 19267 PWs)   bands (ev):

   -48.2167 -47.0102 -46.2161 -46.0958  -5.5384  -5.3431  -5.3223  -5.1236
    -5.0900  -4.9634  -4.8396  -4.7481  -4.6867  -4.5987  -4.5638  -4.4999
    -4.3755  -4.1656  -4.0083  -3.2481  -2.1461  -1.1832  -0.1633   0.4823
     0.6791   1.6906   2.1848   2.5019

          k =-0.5000-0.2887 0.0000 ( 19296 PWs)   bands (ev):

   -48.2168 -47.0103 -46.2162 -46.0959  -5.5856  -5.3414  -5.3260  -5.1057
    -5.0774  -4.9169  -4.8741  -4.7423  -4.6828  -4.5909  -4.5438  -4.5350
    -4.4673  -4.1373  -3.8791  -2.9542  -2.6890  -0.8935  -0.5887   0.7754
     0.8733   1.4456   2.1841   2.6655

     the Fermi energy is    -0.0879 ev

!    total energy              =    -312.24527065 Ry
     estimated scf accuracy    <       0.00000019 Ry
     smearing contrib. (-TS)   =      -0.00121234 Ry
     internal energy E=F+TS    =    -312.24405830 Ry

     The total energy is F=E-TS. E is the sum of the following terms:
     one-electron contribution =   -1961.26604922 Ry
     hartree contribution      =     996.70713554 Ry
     xc contribution           =     -81.37084531 Ry
     ewald contribution        =     733.77226253 Ry
     DFT-D3 Dispersion         =      -0.08656185 Ry

     convergence has been achieved in   7 iterations

     negative rho (up, down):  1.258E-05 0.000E+00

     Forces acting on atoms (cartesian axes, Ry/au):

     atom    1 type  1   force =     0.00000061    0.00000111   -0.06329252
     atom    2 type  1   force =    -0.00000052    0.00000013    0.00521622
     atom    3 type  1   force =    -0.00000210   -0.00000149    0.01244673
     atom    4 type  2   force =     0.00000073   -0.00000007    0.00779639
     atom    5 type  2   force =     0.00000034   -0.00000007   -0.02084958
     atom    6 type  2   force =     0.00000043    0.00000050   -0.00562503
     atom    7 type  2   force =     0.00000051   -0.00000010    0.06430780
     The non-local contrib.  to forces
     atom    1 type  1   force =     0.00000118    0.00000003    0.13401380
     atom    2 type  1   force =     0.00000161    0.00000037    0.02048402
     atom    3 type  1   force =    -0.00000196   -0.00000209    0.00562713
     atom    4 type  2   force =     0.00000005   -0.00000007    0.01261160
     atom    5 type  2   force =     0.00000011    0.00000002   -0.01284993
     atom    6 type  2   force =     0.00000008    0.00000039   -0.06196682
     atom    7 type  2   force =    -0.00000084    0.00000021    0.07892774
     The ionic contribution  to forces
     atom    1 type  1   force =    -0.00008249   -0.00003239   41.54884660
     atom    2 type  1   force =     0.00007908    0.00003455    1.70022539
     atom    3 type  1   force =    -0.00000230    0.00000043  -45.70779593
     atom    4 type  2   force =     0.00001523    0.00000333    8.10660482
     atom    5 type  2   force =    -0.00000954   -0.00000577   -7.47315314
     atom    6 type  2   force =     0.00000171    0.00000056  -17.33935479
     atom    7 type  2   force =    -0.00000168   -0.00000071   19.16462705
     The local contribution  to forces
     atom    1 type  1   force =     0.00007775    0.00002592  -41.74910570
     atom    2 type  1   force =    -0.00007635   -0.00003120   -1.71497198
     atom    3 type  1   force =     0.00000802    0.00000144   45.71010718
     atom    4 type  2   force =    -0.00001443   -0.00000206   -8.11040456
     atom    5 type  2   force =     0.00000806    0.00000443    7.46408695
     atom    6 type  2   force =    -0.00000199   -0.00000148   17.39389321
     atom    7 type  2   force =     0.00000227    0.00000155  -19.17721384
     The core correction contribution to forces
     atom    1 type  1   force =     0.00000005   -0.00000014    0.00513724
     atom    2 type  1   force =    -0.00000000   -0.00000001   -0.00218137
     atom    3 type  1   force =     0.00000021    0.00000006    0.00228676
     atom    4 type  2   force =     0.00000000    0.00000000    0.00000000
     atom    5 type  2   force =     0.00000000    0.00000000    0.00000000
     atom    6 type  2   force =     0.00000000    0.00000000    0.00000000
     atom    7 type  2   force =     0.00000000    0.00000000    0.00000000
     The Hubbard contrib.    to forces
     atom    1 type  1   force =     0.00000000    0.00000000    0.00000000
     atom    2 type  1   force =     0.00000000    0.00000000    0.00000000
     atom    3 type  1   force =     0.00000000    0.00000000    0.00000000
     atom    4 type  2   force =     0.00000000    0.00000000    0.00000000
     atom    5 type  2   force =     0.00000000    0.00000000    0.00000000
     atom    6 type  2   force =     0.00000000    0.00000000    0.00000000
     atom    7 type  2   force =     0.00000000    0.00000000    0.00000000
     The SCF correction term to forces
     atom    1 type  1   force =     0.00000371    0.00000764    0.00006470
     atom    2 type  1   force =    -0.00000506   -0.00000356    0.00052972
     atom    3 type  1   force =    -0.00000638   -0.00000136    0.00061545
     atom    4 type  2   force =    -0.00000044   -0.00000129    0.00015827
     atom    5 type  2   force =     0.00000142    0.00000123    0.00019839
     atom    6 type  2   force =     0.00000032    0.00000101    0.00017683
     atom    7 type  2   force =     0.00000046   -0.00000116    0.00013166

     DFT-D3 dispersion contribution to forces:
     atom    1 type  1   force =     0.00000011    0.00000004   -0.00219824
     atom    2 type  1   force =    -0.00000010   -0.00000004    0.00118135
     atom    3 type  1   force =     0.00000000   -0.00000000    0.00165705
     atom    4 type  2   force =     0.00000001    0.00000001   -0.00112282
     atom    5 type  2   force =    -0.00000001   -0.00000000    0.00091907
     atom    6 type  2   force =    -0.00000000   -0.00000000    0.00167747
     atom    7 type  2   force =    -0.00000000   -0.00000000   -0.00211388

     Total force =     0.094078     Total SCF correction =     0.000881


     Computing stress (Cartesian axis) and pressure


     negative rho (up, down):  1.258E-05 0.000E+00
          total   stress  (Ry/bohr**3)                   (kbar)     P=       -2.62
  -0.00006293  -0.00000000  -0.00000000           -9.26       -0.00       -0.00
  -0.00000000  -0.00006293  -0.00000000           -0.00       -9.26       -0.00
  -0.00000000  -0.00000000   0.00007252           -0.00       -0.00       10.67

     Energy error            =      1.7E-02 Ry
     Gradient error          =      6.4E-02 Ry/Bohr

     number of scf cycles    =   2
     number of bfgs steps    =   1

     energy             old  =    -312.2284121578 Ry
     energy             new  =    -312.2452706474 Ry

     CASE: energy            _new < energy            _old

     new trust radius        =       0.1118935788 bohr
     new conv_thr            =       0.0000006431 Ry


ATOMIC_POSITIONS (angstrom)
Ag            1.1040774725        0.6374361865       14.2348309374
Ag            3.3121662240        1.9122800240       12.7128617145
Ag            5.5202759409        3.1871319518       10.9197744367
Li            5.5202864748        3.1871375299       13.6745885417
Li            1.1040554197        0.6374267362       11.7743277502
Li            3.3121663779        1.9122800997        9.9917045778
Li            1.1040770927        0.6374349215       16.4581326471



     Writing config-only to output data dir ./LiAg_mp-2426_111_ontop_0/LiAg_mp-2426_111_ontop_0.save/
     NEW-OLD atomic charge density approx. for the potential

     negative rho (up, down):  1.702E-05 0.000E+00

     total cpu time spent up to now is       15.5 secs

     per-process dynamical memory:   214.0 Mb

     Self-consistent Calculation

     iteration #  1     ecut=    55.00 Ry     beta= 0.30
     Davidson diagonalization with overlap
     ethr =  1.00E-06,  avg # of iterations = 10.7

     negative rho (up, down):  1.465E-05 0.000E+00

     total cpu time spent up to now is       16.4 secs

     total energy              =    -312.25714471 Ry
     estimated scf accuracy    <       0.00079802 Ry

     iteration #  2     ecut=    55.00 Ry     beta= 0.30
     Davidson diagonalization with overlap
     ethr =  1.77E-06,  avg # of iterations =  2.0

     negative rho (up, down):  2.398E-05 0.000E+00

     total cpu time spent up to now is       16.6 secs

     total energy              =    -312.25710672 Ry
     estimated scf accuracy    <       0.00078466 Ry

     iteration #  3     ecut=    55.00 Ry     beta= 0.30
     Davidson diagonalization with overlap
     ethr =  1.74E-06,  avg # of iterations =  2.4

     negative rho (up, down):  2.436E-05 0.000E+00

     total cpu time spent up to now is       16.9 secs

     total energy              =    -312.25714232 Ry
     estimated scf accuracy    <       0.00244320 Ry

     iteration #  4     ecut=    55.00 Ry     beta= 0.30
     Davidson diagonalization with overlap
     ethr =  1.74E-06,  avg # of iterations =  1.0

     negative rho (up, down):  2.154E-05 0.000E+00

     total cpu time spent up to now is       17.1 secs

     total energy              =    -312.25726252 Ry
     estimated scf accuracy    <       0.00003946 Ry

     iteration #  5     ecut=    55.00 Ry     beta= 0.30
     Davidson diagonalization with overlap
     ethr =  8.77E-08,  avg # of iterations =  2.0

     negative rho (up, down):  1.281E-05 0.000E+00

     total cpu time spent up to now is       17.3 secs

     total energy              =    -312.25726990 Ry
     estimated scf accuracy    <       0.00001449 Ry

     iteration #  6     ecut=    55.00 Ry     beta= 0.30
     Davidson diagonalization with overlap
     ethr =  3.22E-08,  avg # of iterations =  2.1

     negative rho (up, down):  2.294E-05 0.000E+00

     total cpu time spent up to now is       17.5 secs

     total energy              =    -312.25727167 Ry
     estimated scf accuracy    <       0.00000210 Ry

     iteration #  7     ecut=    55.00 Ry     beta= 0.30
     Davidson diagonalization with overlap
     ethr =  4.66E-09,  avg # of iterations =  4.1

     negative rho (up, down):  1.281E-05 0.000E+00

     total cpu time spent up to now is       17.8 secs

     End of self-consistent calculation

          k = 0.0000 0.0000 0.0000 ( 19117 PWs)   bands (ev):

   -48.2372 -47.0338 -46.2238 -46.0967  -5.8684  -5.5503  -5.5503  -5.3640
    -5.3640  -5.3459  -5.0043  -4.8285  -4.8285  -4.6120  -4.6120  -4.1977
    -4.1564  -4.1564  -3.8082  -3.8082  -3.4291  -1.3140  -0.1143   1.4797
     2.5011   2.7224   3.7066   4.1962

          k = 0.0000 0.1443 0.0000 ( 19191 PWs)   bands (ev):

   -48.2373 -47.0339 -46.2239 -46.0968  -5.7833  -5.5316  -5.5130  -5.3606
    -5.3222  -5.2914  -4.9708  -4.8236  -4.7998  -4.6172  -4.6052  -4.2278
    -4.1873  -4.1492  -3.9356  -3.8179  -3.2314  -1.1608   0.0279   1.6085
     2.4701   2.6686   2.8993   2.9757

          k = 0.0000 0.2887 0.0000 ( 19227 PWs)   bands (ev):

   -48.2373 -47.0339 -46.2239 -46.0969  -5.6464  -5.4525  -5.4302  -5.3114
    -5.1931  -5.1664  -4.9170  -4.7554  -4.7432  -4.6161  -4.5291  -4.3032
    -4.2744  -4.1744  -4.1129  -3.8413  -2.7385  -0.7206   0.2153   0.7843
     1.8764   2.0047   2.3530   3.1050

          k = 0.0000 0.4330 0.0000 ( 19265 PWs)   bands (ev):

   -48.2373 -47.0339 -46.2238 -46.0969  -5.5952  -5.3749  -5.3538  -5.1788
    -5.0847  -5.0079  -4.8893  -4.7115  -4.6815  -4.5879  -4.5573  -4.4067
    -4.3892  -4.1363  -3.8569  -3.8290  -2.0786  -1.1618  -0.0013   0.6283
     1.1309   1.3217   2.4196   2.8158

          k = 0.0000-0.5774 0.0000 ( 19296 PWs)   bands (ev):

   -48.2373 -47.0339 -46.2238 -46.0969  -5.5855  -5.3404  -5.3224  -5.0984
    -5.0552  -4.9016  -4.8786  -4.7293  -4.6863  -4.5895  -4.5531  -4.5270
    -4.4636  -4.1243  -3.8570  -2.9700  -2.6815  -0.8876  -0.5710   0.7510
     0.8625   1.3948   2.1373   2.6354

          k = 0.1250-0.0722 0.0000 ( 19191 PWs)   bands (ev):

   -48.2373 -47.0339 -46.2239 -46.0968  -5.7833  -5.5316  -5.5130  -5.3606
    -5.3222  -5.2914  -4.9708  -4.8236  -4.7998  -4.6172  -4.6052  -4.2278
    -4.1873  -4.1492  -3.9356  -3.8179  -3.2314  -1.1608   0.0279   1.6085
     2.4701   2.6686   2.8993   2.9757

          k = 0.1250 0.0722 0.0000 ( 19191 PWs)   bands (ev):

   -48.2373 -47.0339 -46.2239 -46.0968  -5.7833  -5.5316  -5.5130  -5.3606
    -5.3221  -5.2914  -4.9708  -4.8236  -4.7998  -4.6172  -4.6052  -4.2278
    -4.1873  -4.1492  -3.9356  -3.8179  -3.2314  -1.1608   0.0279   1.6085
     2.4701   2.6686   2.8993   2.9757

          k = 0.1250 0.2165 0.0000 ( 19214 PWs)   bands (ev):

   -48.2373 -47.0339 -46.2239 -46.0968  -5.6649  -5.4947  -5.4461  -5.3073
    -5.2844  -5.1791  -4.9206  -4.8050  -4.7424  -4.6309  -4.5527  -4.3026
    -4.2135  -4.1481  -4.0950  -3.8466  -2.8933  -0.8618   0.2734   1.3527
     1.5649   1.9899   2.9330   3.1315

          k = 0.1250 0.3608 0.0000 ( 19244 PWs)   bands (ev):

   -48.2373 -47.0339 -46.2238 -46.0968  -5.5658  -5.4165  -5.3711  -5.2247
    -5.1553  -5.0444  -4.8724  -4.7656  -4.6783  -4.6209  -4.4999  -4.3568
    -4.2642  -4.1959  -4.1014  -3.8502  -2.2862  -0.5056  -0.1853   0.5768
     1.0373   1.7255   2.4224   2.9363

          k = 0.1250-0.6495 0.0000 ( 19267 PWs)   bands (ev):

   -48.2373 -47.0339 -46.2238 -46.0969  -5.5362  -5.3369  -5.3133  -5.1327
    -5.0763  -4.9496  -4.8397  -4.7494  -4.6759  -4.5953  -4.5602  -4.4938
    -4.3724  -4.1582  -3.9863  -3.2519  -2.1462  -1.1755  -0.1588   0.4790
     0.6523   1.6464   2.1501   2.4939

          k = 0.1250-0.5052 0.0000 ( 19267 PWs)   bands (ev):

   -48.2373 -47.0339 -46.2238 -46.0969  -5.5362  -5.3369  -5.3132  -5.1327
    -5.0763  -4.9496  -4.8397  -4.7494  -4.6759  -4.5953  -4.5602  -4.4938
    -4.3724  -4.1582  -3.9863  -3.2519  -2.1462  -1.1755  -0.1588   0.4790
     0.6523   1.6464   2.1501   2.4940

          k = 0.1250-0.3608 0.0000 ( 19244 PWs)   bands (ev):

   -48.2373 -47.0339 -46.2238 -46.0968  -5.5658  -5.4165  -5.3711  -5.2247
    -5.1553  -5.0444  -4.8724  -4.7656  -4.6783  -4.6209  -4.4999  -4.3568
    -4.2642  -4.1959  -4.1014  -3.8502  -2.2862  -0.5056  -0.1853   0.5768
     1.0373   1.7255   2.4224   2.9363

          k = 0.1250-0.2165 0.0000 ( 19214 PWs)   bands (ev):

   -48.2373 -47.0339 -46.2239 -46.0968  -5.6649  -5.4947  -5.4461  -5.3073
    -5.2844  -5.1791  -4.9206  -4.8050  -4.7424  -4.6309  -4.5527  -4.3026
    -4.2135  -4.1481  -4.0951  -3.8466  -2.8933  -0.8618   0.2734   1.3528
     1.5649   1.9899   2.9330   3.1313

          k = 0.2500-0.1443 0.0000 ( 19227 PWs)   bands (ev):

   -48.2373 -47.0339 -46.2239 -46.0969  -5.6464  -5.4525  -5.4302  -5.3114
    -5.1931  -5.1664  -4.9170  -4.7555  -4.7432  -4.6161  -4.5291  -4.3032
    -4.2744  -4.1744  -4.1129  -3.8413  -2.7385  -0.7206   0.2153   0.7843
     1.8764   2.0047   2.3530   3.1050

          k = 0.2500 0.0000 0.0000 ( 19214 PWs)   bands (ev):

   -48.2373 -47.0339 -46.2239 -46.0968  -5.6649  -5.4947  -5.4461  -5.3073
    -5.2844  -5.1791  -4.9206  -4.8050  -4.7424  -4.6309  -4.5527  -4.3026
    -4.2135  -4.1481  -4.0951  -3.8466  -2.8933  -0.8618   0.2734   1.3527
     1.5649   1.9899   2.9330   3.1316

          k = 0.2500 0.1443 0.0000 ( 19227 PWs)   bands (ev):

   -48.2373 -47.0339 -46.2239 -46.0969  -5.6464  -5.4525  -5.4302  -5.3114
    -5.1931  -5.1664  -4.9170  -4.7554  -4.7432  -4.6161  -4.5291  -4.3032
    -4.2744  -4.1744  -4.1129  -3.8413  -2.7385  -0.7206   0.2153   0.7843
     1.8764   2.0047   2.3530   3.1050

          k = 0.2500 0.2887 0.0000 ( 19244 PWs)   bands (ev):

   -48.2373 -47.0339 -46.2238 -46.0968  -5.5658  -5.4165  -5.3711  -5.2247
    -5.1553  -5.0444  -4.8724  -4.7656  -4.6783  -4.6209  -4.4999  -4.3568
    -4.2642  -4.1959  -4.1014  -3.8502  -2.2862  -0.5056  -0.1853   0.5768
     1.0373   1.7255   2.4224   2.9363

          k = 0.2500-0.7217 0.0000 ( 19252 PWs)   bands (ev):

   -48.2372 -47.0338 -46.2237 -46.0968  -5.4451  -5.3772  -5.3121  -5.1459
    -5.1170  -4.9549  -4.8363  -4.7498  -4.6864  -4.5954  -4.5421  -4.4344
    -4.3057  -4.1971  -4.1370  -3.3649  -1.7226  -1.2039  -0.4720   0.5016
     1.1411   1.2334   1.9536   2.6292

          k = 0.2500-0.5774 0.0000 ( 19252 PWs)   bands (ev):

   -48.2372 -47.0338 -46.2237 -46.0968  -5.4070  -5.3017  -5.2932  -5.1498
    -5.0887  -4.9731  -4.7677  -4.7527  -4.6829  -4.6151  -4.5174  -4.4516
    -4.3440  -4.2643  -4.1635  -2.4335  -2.4007  -1.4458  -0.1327   0.1439
     1.0540   1.3306   1.7574   2.5543

          k = 0.2500-0.4330 0.0000 ( 19252 PWs)   bands (ev):

   -48.2372 -47.0338 -46.2237 -46.0968  -5.4451  -5.3772  -5.3122  -5.1459
    -5.1170  -4.9549  -4.8363  -4.7498  -4.6864  -4.5954  -4.5421  -4.4344
    -4.3057  -4.1971  -4.1370  -3.3649  -1.7226  -1.2039  -0.4720   0.5016
     1.1411   1.2334   1.9536   2.6292

          k = 0.2500-0.2887 0.0000 ( 19244 PWs)   bands (ev):

   -48.2373 -47.0339 -46.2238 -46.0968  -5.5658  -5.4165  -5.3711  -5.2247
    -5.1553  -5.0444  -4.8724  -4.7656  -4.6783  -4.6209  -4.4999  -4.3568
    -4.2642  -4.1959  -4.1014  -3.8502  -2.2862  -0.5056  -0.1853   0.5768
     1.0373   1.7255   2.4224   2.9363

          k = 0.3750-0.2165 0.0000 ( 19265 PWs)   bands (ev):

   -48.2373 -47.0339 -46.2238 -46.0969  -5.5952  -5.3749  -5.3538  -5.1788
    -5.0847  -5.0079  -4.8893  -4.7115  -4.6815  -4.5879  -4.5573  -4.4067
    -4.3892  -4.1363  -3.8569  -3.8290  -2.0786  -1.1618  -0.0013   0.6283
     1.1309   1.3217   2.4196   2.8158

          k = 0.3750-0.0722 0.0000 ( 19244 PWs)   bands (ev):

   -48.2373 -47.0339 -46.2238 -46.0968  -5.5658  -5.4165  -5.3711  -5.2247
    -5.1553  -5.0444  -4.8724  -4.7656  -4.6783  -4.6209  -4.4999  -4.3568
    -4.2642  -4.1959  -4.1014  -3.8502  -2.2862  -0.5056  -0.1853   0.5768
     1.0373   1.7255   2.4224   2.9363

          k = 0.3750 0.0722 0.0000 ( 19244 PWs)   bands (ev):

   -48.2373 -47.0339 -46.2238 -46.0968  -5.5658  -5.4165  -5.3711  -5.2247
    -5.1553  -5.0444  -4.8724  -4.7656  -4.6783  -4.6209  -4.4999  -4.3568
    -4.2642  -4.1959  -4.1014  -3.8502  -2.2862  -0.5056  -0.1853   0.5768
     1.0373   1.7255   2.4224   2.9363

          k = 0.3750 0.2165 0.0000 ( 19265 PWs)   bands (ev):

   -48.2373 -47.0339 -46.2238 -46.0969  -5.5952  -5.3749  -5.3538  -5.1788
    -5.0847  -5.0080  -4.8893  -4.7116  -4.6815  -4.5879  -4.5573  -4.4067
    -4.3892  -4.1363  -3.8569  -3.8290  -2.0786  -1.1618  -0.0013   0.6283
     1.1309   1.3217   2.4196   2.8158

          k = 0.3750-0.7939 0.0000 ( 19267 PWs)   bands (ev):

   -48.2373 -47.0339 -46.2238 -46.0969  -5.5362  -5.3369  -5.3132  -5.1328
    -5.0763  -4.9496  -4.8397  -4.7494  -4.6759  -4.5953  -4.5602  -4.4938
    -4.3724  -4.1582  -3.9863  -3.2519  -2.1462  -1.1755  -0.1588   0.4790
     0.6523   1.6464   2.1501   2.4939

          k = 0.3750-0.6495 0.0000 ( 19252 PWs)   bands (ev):

   -48.2372 -47.0338 -46.2237 -46.0968  -5.4070  -5.3017  -5.2932  -5.1498
    -5.0887  -4.9731  -4.7677  -4.7527  -4.6829  -4.6151  -4.5174  -4.4517
    -4.3440  -4.2643  -4.1635  -2.4335  -2.4007  -1.4458  -0.1327   0.1439
     1.0540   1.3306   1.7574   2.5543

          k = 0.3750-0.5052 0.0000 ( 19252 PWs)   bands (ev):

   -48.2372 -47.0338 -46.2237 -46.0968  -5.4070  -5.3017  -5.2932  -5.1498
    -5.0887  -4.9731  -4.7677  -4.7527  -4.6829  -4.6151  -4.5174  -4.4516
    -4.3440  -4.2643  -4.1635  -2.4335  -2.4007  -1.4458  -0.1327   0.1439
     1.0540   1.3306   1.7574   2.5543

          k = 0.3750-0.3608 0.0000 ( 19267 PWs)   bands (ev):

   -48.2373 -47.0339 -46.2238 -46.0969  -5.5362  -5.3369  -5.3132  -5.1327
    -5.0763  -4.9496  -4.8397  -4.7494  -4.6759  -4.5953  -4.5602  -4.4938
    -4.3724  -4.1582  -3.9863  -3.2519  -2.1462  -1.1755  -0.1588   0.4790
     0.6523   1.6464   2.1501   2.4940

          k =-0.5000 0.2887 0.0000 ( 19296 PWs)   bands (ev):

   -48.2373 -47.0339 -46.2238 -46.0969  -5.5855  -5.3404  -5.3224  -5.0984
    -5.0552  -4.9016  -4.8786  -4.7293  -4.6863  -4.5895  -4.5531  -4.5270
    -4.4636  -4.1243  -3.8570  -2.9700  -2.6815  -0.8876  -0.5710   0.7510
     0.8625   1.3948   2.1373   2.6354

          k =-0.5000 0.4330 0.0000 ( 19267 PWs)   bands (ev):

   -48.2373 -47.0339 -46.2238 -46.0969  -5.5362  -5.3369  -5.3133  -5.1327
    -5.0763  -4.9496  -4.8397  -4.7494  -4.6759  -4.5953  -4.5602  -4.4938
    -4.3724  -4.1582  -3.9863  -3.2519  -2.1462  -1.1755  -0.1588   0.4790
     0.6523   1.6464   2.1501   2.4939

          k =-0.5000 0.5774 0.0000 ( 19252 PWs)   bands (ev):

   -48.2372 -47.0338 -46.2237 -46.0968  -5.4451  -5.3772  -5.3121  -5.1459
    -5.1170  -4.9549  -4.8363  -4.7498  -4.6864  -4.5954  -4.5421  -4.4344
    -4.3057  -4.1971  -4.1370  -3.3649  -1.7226  -1.2039  -0.4720   0.5016
     1.1411   1.2334   1.9536   2.6292

          k =-0.5000 0.7217 0.0000 ( 19267 PWs)   bands (ev):

   -48.2373 -47.0339 -46.2238 -46.0969  -5.5362  -5.3369  -5.3132  -5.1328
    -5.0763  -4.9496  -4.8397  -4.7494  -4.6759  -4.5953  -4.5602  -4.4938
    -4.3724  -4.1582  -3.9863  -3.2519  -2.1462  -1.1755  -0.1588   0.4790
     0.6523   1.6464   2.1501   2.4940

          k =-0.5000-0.2887 0.0000 ( 19296 PWs)   bands (ev):

   -48.2373 -47.0339 -46.2238 -46.0969  -5.5855  -5.3404  -5.3224  -5.0984
    -5.0552  -4.9016  -4.8786  -4.7293  -4.6864  -4.5895  -4.5531  -4.5270
    -4.4636  -4.1243  -3.8570  -2.9700  -2.6815  -0.8876  -0.5711   0.7510
     0.8625   1.3948   2.1373   2.6354

     the Fermi energy is    -0.0993 ev

!    total energy              =    -312.25727183 Ry
     estimated scf accuracy    <       0.00000015 Ry
     smearing contrib. (-TS)   =      -0.00132414 Ry
     internal energy E=F+TS    =    -312.25594770 Ry

     The total energy is F=E-TS. E is the sum of the following terms:
     one-electron contribution =   -1967.05548930 Ry
     hartree contribution      =     999.59610859 Ry
     xc contribution           =     -81.35992988 Ry
     ewald contribution        =     736.64993718 Ry
     DFT-D3 Dispersion         =      -0.08657430 Ry

     convergence has been achieved in   7 iterations

     negative rho (up, down):  1.281E-05 0.000E+00

     Forces acting on atoms (cartesian axes, Ry/au):

     atom    1 type  1   force =     0.00000153   -0.00000142   -0.03142564
     atom    2 type  1   force =     0.00000162   -0.00000006    0.00320448
     atom    3 type  1   force =    -0.00000151   -0.00000052    0.01156544
     atom    4 type  2   force =     0.00000019    0.00000060    0.00790327
     atom    5 type  2   force =    -0.00000010   -0.00000006   -0.02307239
     atom    6 type  2   force =    -0.00000042    0.00000020   -0.00522493
     atom    7 type  2   force =    -0.00000130    0.00000127    0.03704977
     The non-local contrib.  to forces
     atom    1 type  1   force =     0.00000158   -0.00000041    0.09287263
     atom    2 type  1   force =     0.00000291   -0.00000075    0.01726829
     atom    3 type  1   force =    -0.00000074    0.00000024    0.00927690
     atom    4 type  2   force =     0.00000013    0.00000029    0.01388215
     atom    5 type  2   force =    -0.00000013   -0.00000030   -0.01432644
     atom    6 type  2   force =    -0.00000018    0.00000004   -0.06170675
     atom    7 type  2   force =    -0.00000074    0.00000051    0.07169326
     The ionic contribution  to forces
     atom    1 type  1   force =    -0.00009171   -0.00003873   41.58830169
     atom    2 type  1   force =     0.00008679    0.00003539    2.02951442
     atom    3 type  1   force =     0.00000873    0.00000946  -45.64469799
     atom    4 type  2   force =     0.00001522    0.00000678    8.36228402
     atom    5 type  2   force =    -0.00001573   -0.00000878   -7.69513995
     atom    6 type  2   force =    -0.00000167   -0.00000234  -17.38525927
     atom    7 type  2   force =    -0.00000164   -0.00000177   18.74499709
     The local contribution  to forces
     atom    1 type  1   force =     0.00008825    0.00003908  -41.71111482
     atom    2 type  1   force =    -0.00008723   -0.00003618   -2.04390173
     atom    3 type  1   force =    -0.00000751   -0.00000811   45.64271718
     atom    4 type  2   force =    -0.00001390   -0.00000725   -8.36730134
     atom    5 type  2   force =     0.00001513    0.00000923    7.68532459
     atom    6 type  2   force =     0.00000175    0.00000223   17.43995558
     atom    7 type  2   force =     0.00000113    0.00000099  -18.77754327
     The core correction contribution to forces
     atom    1 type  1   force =     0.00000010    0.00000012    0.00144120
     atom    2 type  1   force =    -0.00000025   -0.00000015   -0.00193713
     atom    3 type  1   force =     0.00000007    0.00000005    0.00234660
     atom    4 type  2   force =     0.00000000    0.00000000    0.00000000
     atom    5 type  2   force =     0.00000000    0.00000000    0.00000000
     atom    6 type  2   force =     0.00000000    0.00000000    0.00000000
     atom    7 type  2   force =     0.00000000    0.00000000    0.00000000
     The Hubbard contrib.    to forces
     atom    1 type  1   force =     0.00000000    0.00000000    0.00000000
     atom    2 type  1   force =     0.00000000    0.00000000    0.00000000
     atom    3 type  1   force =     0.00000000    0.00000000    0.00000000
     atom    4 type  2   force =     0.00000000    0.00000000    0.00000000
     atom    5 type  2   force =     0.00000000    0.00000000    0.00000000
     atom    6 type  2   force =     0.00000000    0.00000000    0.00000000
     atom    7 type  2   force =     0.00000000    0.00000000    0.00000000
     The SCF correction term to forces
     atom    1 type  1   force =     0.00000348   -0.00000174   -0.00040704
     atom    2 type  1   force =    -0.00000022    0.00000146    0.00098545
     atom    3 type  1   force =    -0.00000177   -0.00000235    0.00021617
     atom    4 type  2   force =    -0.00000099    0.00000056    0.00012529
     atom    5 type  2   force =     0.00000093   -0.00000042    0.00023186
     atom    6 type  2   force =    -0.00000005    0.00000006    0.00014022
     atom    7 type  2   force =     0.00000024    0.00000133    0.00003270

     DFT-D3 dispersion contribution to forces:
     atom    1 type  1   force =     0.00000011    0.00000005   -0.00248050
     atom    2 type  1   force =    -0.00000010   -0.00000004    0.00131398
     atom    3 type  1   force =    -0.00000001   -0.00000001    0.00174538
     atom    4 type  2   force =     0.00000001    0.00000001   -0.00104807
     atom    5 type  2   force =    -0.00000001   -0.00000000    0.00087635
     atom    6 type  2   force =     0.00000000    0.00000000    0.00168407
     atom    7 type  2   force =    -0.00000001   -0.00000000   -0.00209121

     Total force =     0.055914     Total SCF correction =     0.001129


     Computing stress (Cartesian axis) and pressure


     negative rho (up, down):  1.281E-05 0.000E+00
          total   stress  (Ry/bohr**3)                   (kbar)     P=       -3.73
  -0.00005995  -0.00000000  -0.00000000           -8.82       -0.00       -0.00
  -0.00000000  -0.00005995  -0.00000000           -0.00       -8.82       -0.00
  -0.00000000  -0.00000000   0.00004386           -0.00       -0.00        6.45

     Energy error            =      1.2E-02 Ry
     Gradient error          =      3.7E-02 Ry/Bohr

     number of scf cycles    =   3
     number of bfgs steps    =   2

     energy             old  =    -312.2452706474 Ry
     energy             new  =    -312.2572718331 Ry

     CASE: energy            _new < energy            _old

     new trust radius        =       0.1593566803 bohr
     new conv_thr            =       0.0000003705 Ry


ATOMIC_POSITIONS (angstrom)
Ag            1.1040797055        0.6374350210       14.1578926166
Ag            3.3121680130        1.9122800027       12.7199068373
Ag            5.5202730065        3.1871305053       10.9413176896
Li            5.5202870588        3.1871382612       13.6888776525
Li            1.1040554509        0.6374266295       11.7337958590
Li            3.3121660496        1.9122805675        9.9819693796
Li            1.1040757181        0.6374364624       16.5424605707



     Writing config-only to output data dir ./LiAg_mp-2426_111_ontop_0/LiAg_mp-2426_111_ontop_0.save/
     NEW-OLD atomic charge density approx. for the potential

     negative rho (up, down):  1.956E-05 0.000E+00

     total cpu time spent up to now is       18.9 secs

     per-process dynamical memory:   214.0 Mb

     Self-consistent Calculation

     iteration #  1     ecut=    55.00 Ry     beta= 0.30
     Davidson diagonalization with overlap
     c_bands:  1 eigenvalues not converged
     ethr =  1.00E-06,  avg # of iterations = 13.5

     negative rho (up, down):  1.580E-05 0.000E+00

     total cpu time spent up to now is       19.9 secs

     total energy              =    -312.26561124 Ry
     estimated scf accuracy    <       0.00144848 Ry

     iteration #  2     ecut=    55.00 Ry     beta= 0.30
     Davidson diagonalization with overlap
     ethr =  3.22E-06,  avg # of iterations =  2.3

     negative rho (up, down):  3.712E-05 0.000E+00

     total cpu time spent up to now is       20.2 secs

     total energy              =    -312.26554916 Ry
     estimated scf accuracy    <       0.00184780 Ry

     iteration #  3     ecut=    55.00 Ry     beta= 0.30
     Davidson diagonalization with overlap
     ethr =  3.22E-06,  avg # of iterations =  2.0

     negative rho (up, down):  4.694E-05 0.000E+00

     total cpu time spent up to now is       20.4 secs

     total energy              =    -312.26565170 Ry
     estimated scf accuracy    <       0.00370009 Ry

     iteration #  4     ecut=    55.00 Ry     beta= 0.30
     Davidson diagonalization with overlap
     ethr =  3.22E-06,  avg # of iterations =  1.1

     negative rho (up, down):  3.762E-05 0.000E+00

     total cpu time spent up to now is       20.8 secs

     total energy              =    -312.26585142 Ry
     estimated scf accuracy    <       0.00018791 Ry

     iteration #  5     ecut=    55.00 Ry     beta= 0.30
     Davidson diagonalization with overlap
     ethr =  4.18E-07,  avg # of iterations =  1.5

     negative rho (up, down):  1.261E-05 0.000E+00

     total cpu time spent up to now is       21.0 secs

     total energy              =    -312.26587514 Ry
     estimated scf accuracy    <       0.00002138 Ry

     iteration #  6     ecut=    55.00 Ry     beta= 0.30
     Davidson diagonalization with overlap
     ethr =  4.75E-08,  avg # of iterations =  2.2

     negative rho (up, down):  3.333E-05 0.000E+00

     total cpu time spent up to now is       21.3 secs

     total energy              =    -312.26587778 Ry
     estimated scf accuracy    <       0.00000358 Ry

     iteration #  7     ecut=    55.00 Ry     beta= 0.30
     Davidson diagonalization with overlap
     ethr =  7.95E-09,  avg # of iterations =  4.9

     negative rho (up, down):  1.254E-05 0.000E+00

     total cpu time spent up to now is       21.5 secs

     End of self-consistent calculation

          k = 0.0000 0.0000 0.0000 ( 19117 PWs)   bands (ev):

   -48.3044 -47.0665 -46.2370 -46.0958  -5.9036  -5.5715  -5.5715  -5.4055
    -5.4055  -5.3194  -5.0000  -4.8499  -4.8498  -4.5806  -4.5806  -4.1914
    -4.1137  -4.1137  -3.7850  -3.7850  -3.3933  -1.3353  -0.1533   1.4613
     2.4978   2.7091   3.7102   4.0593

          k = 0.0000 0.1443 0.0000 ( 19191 PWs)   bands (ev):

   -48.3045 -47.0666 -46.2371 -46.0959  -5.8147  -5.5529  -5.5338  -5.3936
    -5.3606  -5.2742  -4.9691  -4.8390  -4.8183  -4.5893  -4.5761  -4.2204
    -4.1482  -4.1128  -3.9069  -3.7944  -3.1983  -1.1840  -0.0103   1.5881
     2.4771   2.6645   2.8861   2.9868

          k = 0.0000 0.2887 0.0000 ( 19227 PWs)   bands (ev):

   -48.3045 -47.0666 -46.2371 -46.0959  -5.6669  -5.4738  -5.4508  -5.3367
    -5.2205  -5.1535  -4.9224  -4.7550  -4.7524  -4.6004  -4.5165  -4.3040
    -4.2466  -4.1283  -4.0893  -3.8162  -2.7076  -0.7457   0.2046   0.7478
     1.8753   1.9914   2.3643   3.0963

          k = 0.0000 0.4330 0.0000 ( 19265 PWs)   bands (ev):

   -48.3045 -47.0666 -46.2370 -46.0959  -5.6085  -5.4000  -5.3720  -5.2042
    -5.0428  -5.0178  -4.9024  -4.7156  -4.6739  -4.5826  -4.5464  -4.3976
    -4.3733  -4.1207  -3.8281  -3.8200  -2.0540  -1.1594  -0.0309   0.6331
     1.1204   1.2833   2.3964   2.7468

          k = 0.0000-0.5774 0.0000 ( 19296 PWs)   bands (ev):

   -48.3046 -47.0666 -46.2370 -46.0959  -5.5972  -5.3653  -5.3382  -5.1359
    -4.9926  -4.8982  -4.8959  -4.7054  -4.6845  -4.5852  -4.5654  -4.5235
    -4.4540  -4.1036  -3.8262  -2.9877  -2.6695  -0.8684  -0.5489   0.7284
     0.8480   1.3271   2.0883   2.6064

          k = 0.1250-0.0722 0.0000 ( 19191 PWs)   bands (ev):

   -48.3045 -47.0666 -46.2371 -46.0959  -5.8147  -5.5529  -5.5338  -5.3936
    -5.3606  -5.2742  -4.9691  -4.8390  -4.8183  -4.5893  -4.5761  -4.2204
    -4.1482  -4.1128  -3.9069  -3.7944  -3.1983  -1.1840  -0.0103   1.5881
     2.4771   2.6645   2.8861   2.9868

          k = 0.1250 0.0722 0.0000 ( 19191 PWs)   bands (ev):

   -48.3045 -47.0666 -46.2371 -46.0959  -5.8147  -5.5529  -5.5338  -5.3936
    -5.3606  -5.2742  -4.9691  -4.8390  -4.8183  -4.5893  -4.5761  -4.2204
    -4.1482  -4.1128  -3.9069  -3.7944  -3.1983  -1.1840  -0.0103   1.5881
     2.4771   2.6645   2.8861   2.9868

          k = 0.1250 0.2165 0.0000 ( 19214 PWs)   bands (ev):

   -48.3045 -47.0666 -46.2371 -46.0959  -5.6897  -5.5082  -5.4705  -5.3379
    -5.3119  -5.1702  -4.9232  -4.8115  -4.7558  -4.6075  -4.5338  -4.2981
    -4.1776  -4.1186  -4.0643  -3.8214  -2.8620  -0.8871   0.2411   1.3504
     1.5503   1.9768   2.9280   3.1217

          k = 0.1250 0.3608 0.0000 ( 19244 PWs)   bands (ev):

   -48.3045 -47.0666 -46.2370 -46.0958  -5.5840  -5.4294  -5.3852  -5.2530
    -5.1763  -5.0200  -4.8799  -4.7700  -4.6792  -4.6028  -4.5000  -4.3470
    -4.2361  -4.1844  -4.0767  -3.8238  -2.2581  -0.5048  -0.2156   0.5685
     0.9914   1.7357   2.4125   2.9472

          k = 0.1250-0.6495 0.0000 ( 19267 PWs)   bands (ev):

   -48.3045 -47.0666 -46.2370 -46.0959  -5.5487  -5.3561  -5.3243  -5.1686
    -5.0485  -4.9328  -4.8514  -4.7554  -4.6546  -4.5911  -4.5595  -4.4876
    -4.3615  -4.1464  -3.9509  -3.2551  -2.1433  -1.1585  -0.1522   0.4755
     0.6236   1.5929   2.1124   2.4842

          k = 0.1250-0.5052 0.0000 ( 19267 PWs)   bands (ev):

   -48.3045 -47.0666 -46.2370 -46.0959  -5.5487  -5.3562  -5.3243  -5.1686
    -5.0485  -4.9328  -4.8514  -4.7554  -4.6546  -4.5911  -4.5595  -4.4876
    -4.3615  -4.1464  -3.9509  -3.2551  -2.1433  -1.1585  -0.1522   0.4755
     0.6236   1.5929   2.1124   2.4842

          k = 0.1250-0.3608 0.0000 ( 19244 PWs)   bands (ev):

   -48.3045 -47.0666 -46.2370 -46.0958  -5.5840  -5.4294  -5.3852  -5.2530
    -5.1763  -5.0200  -4.8799  -4.7700  -4.6792  -4.6028  -4.5000  -4.3470
    -4.2361  -4.1844  -4.0767  -3.8238  -2.2581  -0.5048  -0.2156   0.5685
     0.9914   1.7357   2.4125   2.9472

          k = 0.1250-0.2165 0.0000 ( 19214 PWs)   bands (ev):

   -48.3045 -47.0666 -46.2371 -46.0959  -5.6897  -5.5082  -5.4705  -5.3379
[...]
     2.6240   2.7584   2.9234   3.2587

          k = 0.0000 0.2887 0.0000 ( 19227 PWs)   bands (ev):

   -47.9848 -47.1178 -46.3471 -46.0658  -5.6297  -5.4661  -5.4014  -5.3324
    -5.1625  -4.9612  -4.8344  -4.7386  -4.6725  -4.2999  -4.2752  -3.9625
    -3.8872  -3.8462  -3.7366  -3.5416  -2.3935  -0.6890   0.4093   0.9292
     2.0448   2.0992   2.4457   3.1662

          k = 0.0000 0.4330 0.0000 ( 19265 PWs)   bands (ev):

   -47.9848 -47.1178 -46.3471 -46.0657  -5.5074  -5.4366  -5.3558  -5.2151
    -4.9112  -4.8991  -4.7357  -4.6704  -4.4993  -4.3123  -4.3060  -4.1125
    -4.0594  -3.7988  -3.5775  -3.5198  -1.7698  -0.9733  -0.0160   0.6759
     1.2925   1.5708   2.4838   2.8204

          k = 0.0000-0.5774 0.0000 ( 19296 PWs)   bands (ev):

   -47.9848 -47.1178 -46.3471 -46.0658  -5.5151  -5.3842  -5.3335  -5.1582
    -4.8885  -4.7611  -4.6708  -4.5424  -4.4826  -4.4381  -4.4118  -4.2170
    -4.0834  -3.7579  -3.4926  -2.8590  -2.4326  -0.6320  -0.4605   0.7400
     0.9953   1.5043   2.2208   2.7563

          k = 0.1250-0.0722 0.0000 ( 19191 PWs)   bands (ev):

   -47.9848 -47.1178 -46.3471 -46.0658  -5.8805  -5.4591  -5.4386  -5.3985
    -5.3493  -4.9767  -4.8956  -4.8305  -4.8298  -4.2917  -4.2860  -3.9744
    -3.7512  -3.7395  -3.6037  -3.5142  -2.8654  -1.1092   0.2010   1.6713
     2.6240   2.7584   2.9234   3.2587

          k = 0.1250 0.0722 0.0000 ( 19191 PWs)   bands (ev):

   -47.9848 -47.1178 -46.3471 -46.0658  -5.8805  -5.4591  -5.4386  -5.3985
    -5.3493  -4.9767  -4.8956  -4.8305  -4.8298  -4.2917  -4.2860  -3.9744
    -3.7512  -3.7395  -3.6037  -3.5142  -2.8654  -1.1092   0.2010   1.6713
     2.6240   2.7584   2.9234   3.2587

          k = 0.1250 0.2165 0.0000 ( 19214 PWs)   bands (ev):

   -47.9848 -47.1178 -46.3471 -46.0658  -5.6945  -5.4484  -5.4128  -5.3605
    -5.2516  -4.9523  -4.8450  -4.7573  -4.7445  -4.3028  -4.2783  -3.9629
    -3.8205  -3.7866  -3.7475  -3.5472  -2.5432  -0.8269   0.4339   1.5841
     1.7705   2.0372   2.9208   3.1245

          k = 0.1250 0.3608 0.0000 ( 19244 PWs)   bands (ev):

   -47.9848 -47.1178 -46.3471 -46.0657  -5.5084  -5.4207  -5.3618  -5.2660
    -5.1151  -4.8584  -4.7609  -4.6939  -4.5282  -4.3316  -4.2924  -4.0044
    -3.9458  -3.8705  -3.7630  -3.5338  -1.9656  -0.3395  -0.1400   0.6941
     1.1504   1.8592   2.5276   2.9396

          k = 0.1250-0.6495 0.0000 ( 19267 PWs)   bands (ev):

   -47.9848 -47.1177 -46.3470 -46.0657  -5.4703  -5.3624  -5.3271  -5.1851
    -4.9189  -4.8246  -4.7024  -4.6284  -4.4865  -4.3749  -4.2879  -4.1518
    -4.0650  -3.7917  -3.6153  -3.0916  -1.9369  -0.9463  -0.0633   0.5901
     0.6708   1.7913   2.1896   2.5557

          k = 0.1250-0.5052 0.0000 ( 19267 PWs)   bands (ev):

   -47.9848 -47.1177 -46.3470 -46.0657  -5.4703  -5.3624  -5.3271  -5.1851
    -4.9189  -4.8246  -4.7024  -4.6284  -4.4866  -4.3749  -4.2879  -4.1518
    -4.0650  -3.7917  -3.6153  -3.0916  -1.9369  -0.9463  -0.0633   0.5901
     0.6708   1.7913   2.1896   2.5557

          k = 0.1250-0.3608 0.0000 ( 19244 PWs)   bands (ev):

   -47.9848 -47.1178 -46.3471 -46.0657  -5.5085  -5.4207  -5.3618  -5.2660
    -5.1152  -4.8584  -4.7609  -4.6939  -4.5282  -4.3316  -4.2924  -4.0044
    -3.9458  -3.8705  -3.7630  -3.5338  -1.9656  -0.3395  -0.1400   0.6941
     1.1504   1.8592   2.5276   2.9396

          k = 0.1250-0.2165 0.0000 ( 19214 PWs)   bands (ev):

   -47.9848 -47.1178 -46.3471 -46.0658  -5.6945  -5.4484  -5.4128  -5.3605
    -5.2516  -4.9523  -4.8450  -4.7573  -4.7445  -4.3028  -4.2783  -3.9629
    -3.8205  -3.7867  -3.7475  -3.5472  -2.5432  -0.8269   0.4339   1.5841
     1.7705   2.0372   2.9208   3.1245

          k = 0.2500-0.1443 0.0000 ( 19227 PWs)   bands (ev):

   -47.9848 -47.1178 -46.3471 -46.0658  -5.6297  -5.4661  -5.4014  -5.3324
    -5.1625  -4.9612  -4.8344  -4.7386  -4.6725  -4.2999  -4.2752  -3.9625
    -3.8872  -3.8462  -3.7366  -3.5416  -2.3935  -0.6890   0.4093   0.9293
     2.0448   2.0992   2.4457   3.1662

          k = 0.2500 0.0000 0.0000 ( 19214 PWs)   bands (ev):

   -47.9848 -47.1178 -46.3471 -46.0658  -5.6945  -5.4484  -5.4128  -5.3605
    -5.2516  -4.9523  -4.8450  -4.7573  -4.7445  -4.3028  -4.2783  -3.9629
    -3.8205  -3.7867  -3.7475  -3.5472  -2.5432  -0.8269   0.4339   1.5841
     1.7705   2.0372   2.9208   3.1245

          k = 0.2500 0.1443 0.0000 ( 19227 PWs)   bands (ev):

   -47.9848 -47.1178 -46.3471 -46.0658  -5.6297  -5.4661  -5.4014  -5.3325
    -5.1625  -4.9612  -4.8344  -4.7386  -4.6725  -4.2999  -4.2752  -3.9625
    -3.8872  -3.8462  -3.7366  -3.5416  -2.3935  -0.6890   0.4093   0.9292
     2.0448   2.0992   2.4457   3.1662

          k = 0.2500 0.2887 0.0000 ( 19244 PWs)   bands (ev):

   -47.9848 -47.1178 -46.3471 -46.0657  -5.5084  -5.4207  -5.3618  -5.2660
    -5.1151  -4.8584  -4.7609  -4.6939  -4.5282  -4.3316  -4.2924  -4.0044
    -3.9458  -3.8705  -3.7630  -3.5338  -1.9656  -0.3395  -0.1400   0.6941
     1.1504   1.8592   2.5277   2.9396

          k = 0.2500-0.7217 0.0000 ( 19252 PWs)   bands (ev):

   -47.9847 -47.1177 -46.3470 -46.0657  -5.4290  -5.3271  -5.2888  -5.1998
    -5.0887  -4.7894  -4.7272  -4.6454  -4.4912  -4.3137  -4.2954  -4.0621
    -3.9216  -3.9013  -3.7636  -3.1981  -1.4504  -1.0300  -0.3784   0.4948
     1.2103   1.2923   2.1602   2.8213

          k = 0.2500-0.5774 0.0000 ( 19252 PWs)   bands (ev):

   -47.9847 -47.1177 -46.3470 -46.0656  -5.3878  -5.3033  -5.2505  -5.1897
    -4.9543  -4.8843  -4.7420  -4.6164  -4.5387  -4.3422  -4.1658  -4.0546
    -4.0443  -3.8844  -3.7460  -2.3348  -2.2333  -1.2741  -0.0455   0.3055
     1.1332   1.3255   1.8608   2.5648

          k = 0.2500-0.4330 0.0000 ( 19252 PWs)   bands (ev):

   -47.9847 -47.1177 -46.3470 -46.0657  -5.4290  -5.3271  -5.2888  -5.1998
    -5.0887  -4.7894  -4.7272  -4.6454  -4.4912  -4.3137  -4.2954  -4.0621
    -3.9216  -3.9013  -3.7636  -3.1981  -1.4504  -1.0300  -0.3784   0.4948
     1.2103   1.2923   2.1602   2.8213

          k = 0.2500-0.2887 0.0000 ( 19244 PWs)   bands (ev):

   -47.9848 -47.1178 -46.3471 -46.0657  -5.5085  -5.4207  -5.3618  -5.2660
    -5.1152  -4.8584  -4.7609  -4.6939  -4.5282  -4.3316  -4.2924  -4.0044
    -3.9458  -3.8705  -3.7630  -3.5338  -1.9656  -0.3395  -0.1400   0.6941
     1.1504   1.8592   2.5277   2.9396

          k = 0.3750-0.2165 0.0000 ( 19265 PWs)   bands (ev):

   -47.9848 -47.1178 -46.3471 -46.0657  -5.5074  -5.4366  -5.3558  -5.2151
    -4.9112  -4.8991  -4.7357  -4.6704  -4.4993  -4.3123  -4.3060  -4.1125
    -4.0594  -3.7988  -3.5775  -3.5198  -1.7698  -0.9733  -0.0160   0.6759
     1.2925   1.5708   2.4838   2.8204

          k = 0.3750-0.0722 0.0000 ( 19244 PWs)   bands (ev):

   -47.9848 -47.1178 -46.3471 -46.0657  -5.5085  -5.4207  -5.3618  -5.2660
    -5.1151  -4.8584  -4.7609  -4.6939  -4.5282  -4.3316  -4.2924  -4.0044
    -3.9458  -3.8705  -3.7630  -3.5338  -1.9656  -0.3395  -0.1400   0.6941
     1.1504   1.8592   2.5276   2.9396

          k = 0.3750 0.0722 0.0000 ( 19244 PWs)   bands (ev):

   -47.9848 -47.1178 -46.3471 -46.0657  -5.5084  -5.4207  -5.3618  -5.2660
    -5.1151  -4.8584  -4.7609  -4.6939  -4.5282  -4.3316  -4.2924  -4.0044
    -3.9458  -3.8705  -3.7630  -3.5338  -1.9656  -0.3395  -0.1400   0.6941
     1.1504   1.8592   2.5276   2.9396

          k = 0.3750 0.2165 0.0000 ( 19265 PWs)   bands (ev):

   -47.9848 -47.1178 -46.3471 -46.0657  -5.5073  -5.4366  -5.3558  -5.2151
    -4.9112  -4.8991  -4.7357  -4.6704  -4.4993  -4.3123  -4.3060  -4.1125
    -4.0594  -3.7988  -3.5775  -3.5198  -1.7698  -0.9733  -0.0160   0.6759
     1.2925   1.5708   2.4838   2.8204

          k = 0.3750-0.7939 0.0000 ( 19267 PWs)   bands (ev):

   -47.9848 -47.1177 -46.3470 -46.0657  -5.4703  -5.3624  -5.3271  -5.1851
    -4.9189  -4.8246  -4.7024  -4.6284  -4.4865  -4.3749  -4.2879  -4.1518
    -4.0650  -3.7917  -3.6153  -3.0916  -1.9369  -0.9463  -0.0633   0.5901
     0.6708   1.7913   2.1896   2.5557

          k = 0.3750-0.6495 0.0000 ( 19252 PWs)   bands (ev):

   -47.9847 -47.1177 -46.3470 -46.0656  -5.3878  -5.3033  -5.2505  -5.1897
    -4.9543  -4.8843  -4.7420  -4.6164  -4.5387  -4.3422  -4.1658  -4.0546
    -4.0443  -3.8844  -3.7460  -2.3348  -2.2333  -1.2741  -0.0455   0.3055
     1.1332   1.3255   1.8608   2.5648

          k = 0.3750-0.5052 0.0000 ( 19252 PWs)   bands (ev):

   -47.9847 -47.1177 -46.3470 -46.0656  -5.3878  -5.3033  -5.2505  -5.1897
    -4.9543  -4.8843  -4.7420  -4.6164  -4.5387  -4.3422  -4.1658  -4.0546
    -4.0443  -3.8844  -3.7460  -2.3348  -2.2333  -1.2741  -0.0455   0.3055
     1.1332   1.3255   1.8608   2.5648

          k = 0.3750-0.3608 0.0000 ( 19267 PWs)   bands (ev):

   -47.9848 -47.1177 -46.3470 -46.0657  -5.4703  -5.3624  -5.3271  -5.1851
    -4.9189  -4.8246  -4.7024  -4.6284  -4.4866  -4.3749  -4.2879  -4.1518
    -4.0650  -3.7917  -3.6153  -3.0916  -1.9369  -0.9463  -0.0633   0.5901
     0.6708   1.7913   2.1896   2.5557

          k =-0.5000 0.2887 0.0000 ( 19296 PWs)   bands (ev):

   -47.9848 -47.1178 -46.3471 -46.0658  -5.5151  -5.3842  -5.3335  -5.1582
    -4.8885  -4.7611  -4.6708  -4.5424  -4.4826  -4.4381  -4.4119  -4.2170
    -4.0834  -3.7579  -3.4926  -2.8590  -2.4326  -0.6320  -0.4605   0.7401
     0.9953   1.5043   2.2208   2.7563

          k =-0.5000 0.4330 0.0000 ( 19267 PWs)   bands (ev):

   -47.9848 -47.1177 -46.3470 -46.0657  -5.4703  -5.3624  -5.3271  -5.1851
    -4.9189  -4.8246  -4.7024  -4.6284  -4.4866  -4.3749  -4.2879  -4.1518
    -4.0650  -3.7917  -3.6153  -3.0916  -1.9369  -0.9463  -0.0633   0.5901
     0.6708   1.7913   2.1896   2.5557

          k =-0.5000 0.5774 0.0000 ( 19252 PWs)   bands (ev):

   -47.9847 -47.1177 -46.3470 -46.0657  -5.4290  -5.3271  -5.2888  -5.1998
    -5.0887  -4.7894  -4.7272  -4.6454  -4.4912  -4.3137  -4.2954  -4.0621
    -3.9216  -3.9013  -3.7636  -3.1981  -1.4504  -1.0300  -0.3784   0.4948
     1.2103   1.2923   2.1602   2.8213

          k =-0.5000 0.7217 0.0000 ( 19267 PWs)   bands (ev):

   -47.9848 -47.1177 -46.3470 -46.0657  -5.4703  -5.3624  -5.3271  -5.1851
    -4.9189  -4.8246  -4.7024  -4.6284  -4.4865  -4.3749  -4.2879  -4.1518
    -4.0650  -3.7917  -3.6153  -3.0916  -1.9369  -0.9463  -0.0633   0.5901
     0.6708   1.7913   2.1896   2.5557

          k =-0.5000-0.2887 0.0000 ( 19296 PWs)   bands (ev):

   -47.9848 -47.1178 -46.3471 -46.0658  -5.5151  -5.3842  -5.3335  -5.1582
    -4.8885  -4.7611  -4.6708  -4.5424  -4.4826  -4.4381  -4.4118  -4.2170
    -4.0834  -3.7579  -3.4926  -2.8590  -2.4326  -0.6320  -0.4605   0.7400
     0.9953   1.5043   2.2208   2.7563

     the Fermi energy is    -0.0087 ev

!    total energy              =    -312.28299342 Ry
     estimated scf accuracy    <          2.3E-09 Ry
     smearing contrib. (-TS)   =      -0.00046180 Ry
     internal energy E=F+TS    =    -312.28253162 Ry

     The total energy is F=E-TS. E is the sum of the following terms:
     one-electron contribution =   -2032.91186659 Ry
     hartree contribution      =    1032.75324763 Ry
     xc contribution           =     -81.33019491 Ry
     ewald contribution        =     769.29277016 Ry
     DFT-D3 Dispersion         =      -0.08648790 Ry

     convergence has been achieved in   6 iterations

     negative rho (up, down):  1.427E-05 0.000E+00

     Forces acting on atoms (cartesian axes, Ry/au):

     atom    1 type  1   force =    -0.00000130   -0.00000015    0.00004192
     atom    2 type  1   force =     0.00000092   -0.00000002    0.00069818
     atom    3 type  1   force =     0.00000102    0.00000049    0.00063854
     atom    4 type  2   force =     0.00000060    0.00000021   -0.00038307
     atom    5 type  2   force =    -0.00000106   -0.00000033    0.00015066
     atom    6 type  2   force =    -0.00000011   -0.00000016   -0.00069888
     atom    7 type  2   force =    -0.00000007   -0.00000003   -0.00044735
     The non-local contrib.  to forces
     atom    1 type  1   force =    -0.00000090   -0.00000117    0.00967059
     atom    2 type  1   force =     0.00000084   -0.00000012    0.02521283
     atom    3 type  1   force =    -0.00000012   -0.00000002    0.05882837
     atom    4 type  2   force =     0.00000039    0.00000023    0.01939987
     atom    5 type  2   force =    -0.00000063   -0.00000017   -0.01634487
     atom    6 type  2   force =    -0.00000019   -0.00000016   -0.06558484
     atom    7 type  2   force =     0.00000011    0.00000071    0.06372314
     The ionic contribution  to forces
     atom    1 type  1   force =    -0.00005659   -0.00001876   36.90108185
     atom    2 type  1   force =     0.00002607   -0.00001439    1.88250067
     atom    3 type  1   force =     0.00004627    0.00002425  -40.21346691
     atom    4 type  2   force =     0.00001682    0.00000489   13.37710790
     atom    5 type  2   force =    -0.00002929   -0.00000841  -11.92472820
     atom    6 type  2   force =    -0.00000546   -0.00000538  -18.20284665
     atom    7 type  2   force =     0.00000219    0.00001781   18.18035133
     The local contribution  to forces
     atom    1 type  1   force =     0.00005627    0.00001979  -36.91220858
     atom    2 type  1   force =    -0.00002615    0.00001438   -1.90513141
     atom    3 type  1   force =    -0.00004484   -0.00002354   40.15569908
     atom    4 type  2   force =    -0.00001655   -0.00000484  -13.39596245
     atom    5 type  2   force =     0.00002891    0.00000828   11.94036544
     atom    6 type  2   force =     0.00000556    0.00000542   18.26611802
     atom    7 type  2   force =    -0.00000237   -0.00001857  -18.24252892
     The core correction contribution to forces
     atom    1 type  1   force =     0.00000018    0.00000006    0.00035939
     atom    2 type  1   force =    -0.00000010    0.00000003   -0.00251653
     atom    3 type  1   force =    -0.00000019   -0.00000010    0.00100928
     atom    4 type  2   force =     0.00000000    0.00000000    0.00000000
     atom    5 type  2   force =     0.00000000    0.00000000    0.00000000
     atom    6 type  2   force =     0.00000000    0.00000000    0.00000000
     atom    7 type  2   force =     0.00000000    0.00000000    0.00000000
     The Hubbard contrib.    to forces
     atom    1 type  1   force =     0.00000000    0.00000000    0.00000000
     atom    2 type  1   force =     0.00000000    0.00000000    0.00000000
     atom    3 type  1   force =     0.00000000    0.00000000    0.00000000
     atom    4 type  2   force =     0.00000000    0.00000000    0.00000000
     atom    5 type  2   force =     0.00000000    0.00000000    0.00000000
     atom    6 type  2   force =     0.00000000    0.00000000    0.00000000
     atom    7 type  2   force =     0.00000000    0.00000000    0.00000000
     The SCF correction term to forces
     atom    1 type  1   force =    -0.00000022   -0.00000001   -0.00002507
     atom    2 type  1   force =     0.00000032    0.00000010   -0.00000865
     atom    3 type  1   force =    -0.00000007   -0.00000006   -0.00004930
     atom    4 type  2   force =    -0.00000000   -0.00000001    0.00000287
     atom    5 type  2   force =    -0.00000003   -0.00000000   -0.00001987
     atom    6 type  2   force =     0.00000001   -0.00000001   -0.00001119
     atom    7 type  2   force =     0.00000002    0.00000002    0.00000118

     DFT-D3 dispersion contribution to forces:
     atom    1 type  1   force =    -0.00000000   -0.00000002    0.00116350
     atom    2 type  1   force =    -0.00000003    0.00000001    0.00064105
     atom    3 type  1   force =     0.00000001   -0.00000002   -0.00138221
     atom    4 type  2   force =    -0.00000001   -0.00000003   -0.00093150
     atom    5 type  2   force =     0.00000001    0.00000000    0.00087793
     atom    6 type  2   force =     0.00000001    0.00000001    0.00162555
     atom    7 type  2   force =     0.00000001    0.00000004   -0.00199431

     Total force =     0.001325     Total SCF correction =     0.000061


     Computing stress (Cartesian axis) and pressure


     negative rho (up, down):  1.427E-05 0.000E+00
          total   stress  (Ry/bohr**3)                   (kbar)     P=       -5.67
  -0.00004105  -0.00000000  -0.00000000           -6.04       -0.00       -0.00
  -0.00000000  -0.00004105   0.00000000           -0.00       -6.04        0.00
  -0.00000000   0.00000000  -0.00003363           -0.00        0.00       -4.95

     Energy error            =      4.6E-06 Ry
     Gradient error          =      7.0E-04 Ry/Bohr

     bfgs converged in  34 scf cycles and  33 bfgs steps
     (criteria: energy <  1.0E-04 Ry, force <  1.0E-03 Ry/Bohr)

     End of BFGS Geometry Optimization

     Final energy             =    -312.2829934194 Ry

     File ./LiAg_mp-2426_111_ontop_0/LiAg_mp-2426_111_ontop_0.bfgs deleted, as requested
Begin final coordinates

ATOMIC_POSITIONS (angstrom)
Ag            1.1040651889        0.6374223939       13.8775890255
Ag            3.3121694916        1.9122771287       12.6681703357
Ag            5.5202778220        3.1871282707       11.2901601877
Li            5.5202805063        3.1871296567       14.3222433726
Li            1.1040649471        0.6374250392       11.2597783458
Li            3.3121742701        1.9122804194        9.9189748708
Li            1.1040727765        0.6374645410       16.4293044672
End final coordinates



     Writing all to output data dir ./LiAg_mp-2426_111_ontop_0/LiAg_mp-2426_111_ontop_0.save/

     init_run     :      5.83s CPU      6.38s WALL (       1 calls)
     electrons    :     65.71s CPU     78.47s WALL (      34 calls)
     update_pot   :      7.69s CPU      8.15s WALL (      33 calls)
     forces       :      6.06s CPU      6.89s WALL (      34 calls)
     force_dftd3  :      0.23s CPU      0.44s WALL (      34 calls)
     stress       :     17.59s CPU     18.30s WALL (      34 calls)
     stres_dftd3  :      0.20s CPU      0.34s WALL (      34 calls)

     Called by init_run:
     wfcinit      :      0.23s CPU      0.50s WALL (       1 calls)
     potinit      :      0.91s CPU      0.94s WALL (       1 calls)
     hinit0       :      4.56s CPU      4.80s WALL (       1 calls)

     Called by electrons:
     c_bands      :     51.00s CPU     57.49s WALL (     254 calls)
     sum_band     :      9.43s CPU     11.08s WALL (     254 calls)
     v_of_rho     :      2.64s CPU      3.59s WALL (     280 calls)
     newd         :      1.59s CPU      1.72s WALL (     280 calls)
     mix_rho      :      0.32s CPU      0.34s WALL (     254 calls)
     energy_dftd3 :      0.05s CPU      0.05s WALL (      34 calls)

     Called by c_bands:
     init_us_2    :      0.47s CPU      0.51s WALL (    5193 calls)
     init_us_2:cp :      0.46s CPU      0.51s WALL (    5193 calls)
     cegterg      :     47.41s CPU     50.35s WALL (    2286 calls)

     Called by *egterg:
     cdiaghg      :      9.62s CPU      9.83s WALL (    9376 calls)
     h_psi        :     32.39s CPU     34.93s WALL (    9754 calls)
     s_psi        :      1.00s CPU      1.07s WALL (    9754 calls)
     g_psi        :      0.12s CPU      0.13s WALL (    7459 calls)

     Called by h_psi:
     h_psi:calbec :      2.02s CPU      2.37s WALL (    9754 calls)
     vloc_psi     :     29.27s CPU     31.38s WALL (    9754 calls)
     add_vuspsi   :      1.01s CPU      1.09s WALL (    9754 calls)

     General routines
     calbec       :      3.42s CPU      3.91s WALL (   13570 calls)
     fft          :      7.87s CPU      9.24s WALL (    4463 calls)
     ffts         :      0.95s CPU      1.54s WALL (     534 calls)
     fftw         :     30.93s CPU     33.16s WALL (  409310 calls)
     interpolate  :      1.00s CPU      1.30s WALL (     280 calls)

     Parallel routines

     PWSCF        :   1m43.92s CPU   2m 0.88s WALL


   This run was terminated on:   7:32:14   6Aug2025            

=------------------------------------------------------------------------------=
   JOB DONE.
=------------------------------------------------------------------------------=
