
     Program PWSCF v.7.2 starts on  6Aug2025 at  7:22:23 

     This program is part of the open-source Quantum ESPRESSO suite
     for quantum simulation of materials; please cite
         "P. Giannozzi et al., J. Phys.:Condens. Matter 21 395502 (2009);
         "P. Giannozzi et al., J. Phys.:Condens. Matter 29 465901 (2017);
         "P. Giannozzi et al., J. Chem. Phys. 152 154105 (2020);
          URL http://www.quantum-espresso.org", 
     in publications or presentations arising from this work. More details at
     http://www.quantum-espresso.org/quote

     Parallel version (MPI & OpenMP), running on     256 processor cores
     Number of MPI processes:               256
     Threads/MPI process:                     1

     MPI processes distributed on     4 nodes
     241146 MiB available memory on the printing compute node when the environment starts

     Reading input from LiAg_mp-2426_110_hollow_0.in

     Current dimensions of program PWSCF are:
     Max number of different atomic species (ntypx) = 10
     Max number of k-points (npk) =  40000
     Max angular momentum in pseudopotentials (lmaxx) =  4
     Message from routine iosys:
     restart disabled: needed files not found

     K-points division:     npool     =       4
     R & G space division:  proc/nbgrp/npool/nimage =      64
     Subspace diagonalization in iterative solution of the eigenvalue problem:
     a serial algorithm will be used


     Parallelization info
     --------------------
     sticks:   dense  smooth     PW     G-vecs:    dense   smooth      PW
     Min          30      13      4                 8502     2473     376
     Max          31      14      5                 8541     2518     416
     Sum        1961     865    259               545233   159021   25681

     Using Slab Decomposition



     bravais-lattice index     =            0
     lattice parameter (alat)  =       5.9011  a.u.
     unit-cell volume          =    2888.7690 (a.u.)^3
     number of atoms/cell      =           13
     number of atomic types    =            2
     number of electrons       =        87.00
     number of Kohn-Sham states=           53
     kinetic-energy cutoff     =      55.0000  Ry
     charge density cutoff     =     500.0000  Ry
     scf convergence threshold =      1.0E-06
     mixing beta               =       0.3000
     number of iterations used =            8  plain     mixing
     energy convergence thresh.=      1.0E-04
     force convergence thresh. =      1.0E-03
     Exchange-correlation= PBE
                           (   1   4   3   4   0   0   0)
     nstep                     =          500


     celldm(1)=   5.901124  celldm(2)=   0.000000  celldm(3)=   0.000000
     celldm(4)=   0.000000  celldm(5)=   0.000000  celldm(6)=   0.000000

     crystal axes: (cart. coord. in units of alat)
               a(1) = (   1.000000   0.000000   0.000000 )  
               a(2) = (   0.000000   1.414214  -0.000000 )  
               a(3) = (   0.000000   0.000000   9.940165 )  

     reciprocal axes: (cart. coord. in units 2 pi/alat)
               b(1) = (  1.000000 -0.000000  0.000000 )  
               b(2) = (  0.000000  0.707107  0.000000 )  
               b(3) = ( -0.000000  0.000000  0.100602 )  


     PseudoPot. # 1 for Ag read from file:
     /home/ecastro/trabajo_final/pseudos/Ag.pbe-n-rrkjus_psl.1.0.0.UPF
     MD5 check sum: 81cdf87bacf708300839c66ee23ce017
     Pseudo is Ultrasoft + core correction, Zval = 11.0
     Generated using &quot;atomic&quot; code by A. Dal Corso  v.6.2.2
     Using radial grid of 1237 points,  6 beta functions with: 
                l(1) =   0
                l(2) =   0
                l(3) =   1
                l(4) =   1
                l(5) =   2
                l(6) =   2
     Q(r) pseudized with 0 coefficients 


     PseudoPot. # 2 for Li read from file:
     /home/ecastro/trabajo_final/pseudos/Li.pbe-s-rrkjus_psl.1.0.0.UPF
     MD5 check sum: 9f98d2529904d60b716d33989e9bc179
     Pseudo is Ultrasoft, Zval =  3.0
     Generated using &quot;atomic&quot; code by A. Dal Corso  v.6.3MaX
     Using radial grid of 1017 points,  4 beta functions with: 
                l(1) =   0
                l(2) =   0
                l(3) =   1
                l(4) =   1
     Q(r) pseudized with 0 coefficients 


     atomic species   valence    mass     pseudopotential
        Ag            11.00   107.86820     Ag( 1.00)
        Li             3.00     6.94100     Li( 1.00)

     No symmetry found



   Cartesian axes

     site n.     atom                  positions (alat units)
         1           Ag  tau(   1) = (   0.2499994   0.3535541   6.6750602  )
         2           Ag  tau(   2) = (   0.2499991   1.0606601   6.0303046  )
         3           Ag  tau(   3) = (   0.2500000   0.3535534   5.3236359  )
         4           Ag  tau(   4) = (   0.2500000   1.0606602   4.6165291  )
         5           Ag  tau(   5) = (   0.2500000   0.3535534   3.9094224  )
         6           Ag  tau(   6) = (   0.2500000   1.0606602   3.2023156  )
         7           Li  tau(   7) = (   0.7499996   1.0606612   6.7841830  )
         8           Li  tau(   8) = (   0.7499996   0.3535528   6.0076941  )
         9           Li  tau(   9) = (   0.7500000   1.0606602   5.3236359  )
        10           Li  tau(  10) = (   0.7500000   0.3535534   4.6165291  )
        11           Li  tau(  11) = (   0.7500000   1.0606602   3.9094224  )
        12           Li  tau(  12) = (   0.7500000   0.3535534   3.2023156  )
        13           Li  tau(  13) = (   0.7499995   0.1178520   7.4246461  )

     --------------------------------------------
     DFT-D3 Dispersion Correction (no 3-body):
     --------------------------------------------
       Reference C6 values for interpolation: 

         atom   Coordination number   C6
         Li         0.000          2326.89
         Li         0.987           170.64
         Ag         0.000           853.49
         Ag         0.968           537.23

       Values used:

         atom   Coordination number  R0_AB[au]  C6      C8
         Ag         9.335            3.147    537.23  47741.54
         Ag        10.343            3.147    537.23  47741.54
         Ag        10.198            3.147    537.23  47741.54
         Ag        10.144            3.147    537.23  47741.54
         Ag        10.124            3.147    537.23  47741.54
         Ag         7.371            3.147    537.23  47741.54
         Li         8.735            3.303    170.64  12899.87
         Li        11.063            3.303    170.64  12899.87
         Li        11.350            3.303    170.64  12899.87
         Li        11.222            3.303    170.64  12899.87
         Li        11.194            3.303    170.64  12899.87
         Li         8.083            3.303    170.64  12899.87
         Li         4.074            3.303    170.64  12899.87

         Molecular C6 ( Ry / a.u.^6 ) =     52003.73


     number of k points=    34  Methfessel-Paxton smearing, width (Ry)=  0.0300
                       cart. coord. in units 2pi/alat
        k(    1) = (   0.0000000   0.0000000   0.0000000), wk =   0.0312500
        k(    2) = (   0.0000000   0.0883883   0.0000000), wk =   0.0625000
        k(    3) = (   0.0000000   0.1767767   0.0000000), wk =   0.0625000
        k(    4) = (   0.0000000   0.2651650   0.0000000), wk =   0.0625000
        k(    5) = (   0.0000000  -0.3535534   0.0000000), wk =   0.0312500
        k(    6) = (   0.1250000  -0.0000000   0.0000000), wk =   0.0625000
        k(    7) = (   0.1250000   0.0883883   0.0000000), wk =   0.0625000
        k(    8) = (   0.1250000   0.1767767   0.0000000), wk =   0.0625000
        k(    9) = (   0.1250000   0.2651650   0.0000000), wk =   0.0625000
        k(   10) = (   0.1250000  -0.3535534   0.0000000), wk =   0.0625000
        k(   11) = (   0.1250000  -0.2651650   0.0000000), wk =   0.0625000
        k(   12) = (   0.1250000  -0.1767767   0.0000000), wk =   0.0625000
        k(   13) = (   0.1250000  -0.0883883   0.0000000), wk =   0.0625000
        k(   14) = (   0.2500000  -0.0000000   0.0000000), wk =   0.0625000
        k(   15) = (   0.2500000   0.0883883   0.0000000), wk =   0.0625000
        k(   16) = (   0.2500000   0.1767767   0.0000000), wk =   0.0625000
        k(   17) = (   0.2500000   0.2651650   0.0000000), wk =   0.0625000
        k(   18) = (   0.2500000  -0.3535534   0.0000000), wk =   0.0625000
        k(   19) = (   0.2500000  -0.2651650   0.0000000), wk =   0.0625000
        k(   20) = (   0.2500000  -0.1767767   0.0000000), wk =   0.0625000
        k(   21) = (   0.2500000  -0.0883883   0.0000000), wk =   0.0625000
        k(   22) = (   0.3750000  -0.0000000   0.0000000), wk =   0.0625000
        k(   23) = (   0.3750000   0.0883883   0.0000000), wk =   0.0625000
        k(   24) = (   0.3750000   0.1767767   0.0000000), wk =   0.0625000
        k(   25) = (   0.3750000   0.2651650   0.0000000), wk =   0.0625000
        k(   26) = (   0.3750000  -0.3535534   0.0000000), wk =   0.0625000
        k(   27) = (   0.3750000  -0.2651650   0.0000000), wk =   0.0625000
        k(   28) = (   0.3750000  -0.1767767   0.0000000), wk =   0.0625000
        k(   29) = (   0.3750000  -0.0883883   0.0000000), wk =   0.0625000
        k(   30) = (  -0.5000000   0.0000000   0.0000000), wk =   0.0312500
        k(   31) = (  -0.5000000   0.0883883   0.0000000), wk =   0.0625000
        k(   32) = (  -0.5000000   0.1767767   0.0000000), wk =   0.0625000
        k(   33) = (  -0.5000000   0.2651650   0.0000000), wk =   0.0625000
        k(   34) = (  -0.5000000  -0.3535534   0.0000000), wk =   0.0312500

     Dense  grid:   545233 G-vectors     FFT dimensions: (  45,  60, 432)

     Smooth grid:   159021 G-vectors     FFT dimensions: (  27,  40, 288)

     Estimated max dynamical RAM per process >      18.66 MB

     Estimated total dynamical RAM >       4.28 GB
     Cannot read rho : file not found

     Initial potential from superposition of free atoms

     starting charge      86.9653, renormalised to      87.0000

     negative rho (up, down):  4.878E-05 0.000E+00
     Message from routine qexsd_readschema :
     xml data file ./LiAg_mp-2426_110_hollow_0/LiAg_mp-2426_110_hollow_0.save/data-fi
     Cannot read wfcs: file not found
     Starting wfcs are   89 randomized atomic wfcs

     total cpu time spent up to now is        7.7 secs

     per-process dynamical memory:   177.3 Mb

     Self-consistent Calculation

     iteration #  1     ecut=    55.00 Ry     beta= 0.30
     Davidson diagonalization with overlap
     c_bands:  1 eigenvalues not converged
     c_bands:  1 eigenvalues not converged
     ethr =  1.00E-05,  avg # of iterations = 17.2

     negative rho (up, down):  4.061E-05 0.000E+00

     total cpu time spent up to now is       10.4 secs

     total energy              =    -609.44334866 Ry
     estimated scf accuracy    <       1.38845525 Ry

     iteration #  2     ecut=    55.00 Ry     beta= 0.30
     Davidson diagonalization with overlap
     ethr =  1.60E-03,  avg # of iterations =  7.8

     negative rho (up, down):  7.044E-05 0.000E+00

     total cpu time spent up to now is       11.4 secs

     total energy              =    -607.23228490 Ry
     estimated scf accuracy    <      65.38114271 Ry

     iteration #  3     ecut=    55.00 Ry     beta= 0.30
     Davidson diagonalization with overlap
     ethr =  1.60E-03,  avg # of iterations =  5.9

     negative rho (up, down):  7.439E-05 0.000E+00

     total cpu time spent up to now is       12.4 secs

     total energy              =    -609.66407364 Ry
     estimated scf accuracy    <      11.11063508 Ry

     iteration #  4     ecut=    55.00 Ry     beta= 0.30
     Davidson diagonalization with overlap
     ethr =  1.60E-03,  avg # of iterations =  2.9

     negative rho (up, down):  3.282E-05 0.000E+00

     total cpu time spent up to now is       13.0 secs

     total energy              =    -609.94349168 Ry
     estimated scf accuracy    <       0.92581467 Ry

     iteration #  5     ecut=    55.00 Ry     beta= 0.30
     Davidson diagonalization with overlap
     ethr =  1.06E-03,  avg # of iterations =  1.6

     negative rho (up, down):  1.631E-05 0.000E+00

     total cpu time spent up to now is       13.5 secs

     total energy              =    -609.95660566 Ry
     estimated scf accuracy    <       0.18882876 Ry

     iteration #  6     ecut=    55.00 Ry     beta= 0.30
     Davidson diagonalization with overlap
     ethr =  2.17E-04,  avg # of iterations =  3.1

     negative rho (up, down):  6.411E-06 0.000E+00

     total cpu time spent up to now is       14.2 secs

     total energy              =    -609.95333454 Ry
     estimated scf accuracy    <       0.07511004 Ry

     iteration #  7     ecut=    55.00 Ry     beta= 0.30
     Davidson diagonalization with overlap
     ethr =  8.63E-05,  avg # of iterations =  9.4

     negative rho (up, down):  3.618E-06 0.000E+00

     total cpu time spent up to now is       15.1 secs

     total energy              =    -609.95416202 Ry
     estimated scf accuracy    <       0.01628582 Ry

     iteration #  8     ecut=    55.00 Ry     beta= 0.30
     Davidson diagonalization with overlap
     ethr =  1.87E-05,  avg # of iterations =  5.6

     negative rho (up, down):  3.312E-06 0.000E+00

     total cpu time spent up to now is       15.9 secs

     total energy              =    -609.95455255 Ry
     estimated scf accuracy    <       0.00211629 Ry

     iteration #  9     ecut=    55.00 Ry     beta= 0.30
     Davidson diagonalization with overlap
     ethr =  2.43E-06,  avg # of iterations =  8.8

     negative rho (up, down):  6.834E-06 0.000E+00

     total cpu time spent up to now is       16.8 secs

     total energy              =    -609.95475523 Ry
     estimated scf accuracy    <       0.00037683 Ry

     iteration # 10     ecut=    55.00 Ry     beta= 0.30
     Davidson diagonalization with overlap
     ethr =  4.33E-07,  avg # of iterations =  2.3

     negative rho (up, down):  1.217E-05 0.000E+00

     total cpu time spent up to now is       17.3 secs

     total energy              =    -609.95480120 Ry
     estimated scf accuracy    <       0.00013641 Ry

     iteration # 11     ecut=    55.00 Ry     beta= 0.30
     Davidson diagonalization with overlap
     ethr =  1.57E-07,  avg # of iterations =  2.6

     negative rho (up, down):  1.114E-05 0.000E+00

     total cpu time spent up to now is       17.9 secs

     total energy              =    -609.95481514 Ry
     estimated scf accuracy    <       0.00001818 Ry

     iteration # 12     ecut=    55.00 Ry     beta= 0.30
     Davidson diagonalization with overlap
     ethr =  2.09E-08,  avg # of iterations =  3.9

     negative rho (up, down):  1.535E-05 0.000E+00

     total cpu time spent up to now is       18.6 secs

     total energy              =    -609.95481785 Ry
     estimated scf accuracy    <       0.00000320 Ry

     iteration # 13     ecut=    55.00 Ry     beta= 0.30
     Davidson diagonalization with overlap
     ethr =  3.68E-09,  avg # of iterations =  6.1

     negative rho (up, down):  1.483E-05 0.000E+00

     total cpu time spent up to now is       19.4 secs

     End of self-consistent calculation

          k = 0.0000 0.0000 0.0000 ( 19753 PWs)   bands (ev):

   -45.6780 -44.4453 -44.2937 -43.9334 -43.8505 -43.8412 -43.7926  -4.2020
    -3.8207  -3.5263  -3.5122  -3.4917  -3.4811  -3.3655  -3.3097  -3.2992
    -3.2930  -3.1489  -3.1152  -3.0010  -2.9598  -2.9101  -2.4949  -2.4533
    -2.4508  -2.3881  -2.3819  -2.3152  -2.3024  -2.2789  -2.1839  -2.1805
    -2.1485  -2.0613  -2.0525  -2.0433  -2.0129  -2.0046  -1.9686  -1.6599
    -1.5106  -0.3498   0.7433   1.7955   2.2210   2.4717   2.9768   4.0331
     4.7165   5.1157   5.2335   5.3764   5.9244

          k = 0.0000 0.0884 0.0000 ( 19735 PWs)   bands (ev):

   -45.6779 -44.4453 -44.2936 -43.9333 -43.8504 -43.8411 -43.7925  -4.1107
    -3.7995  -3.5184  -3.4910  -3.4652  -3.4560  -3.3293  -3.3139  -3.2934
    -3.2514  -3.1645  -3.1343  -2.9824  -2.9200  -2.8529  -2.5433  -2.4820
    -2.4670  -2.4133  -2.3822  -2.3128  -2.2870  -2.2354  -2.1876  -2.1743
    -2.1587  -2.1451  -2.0945  -2.0534  -2.0271  -2.0101  -1.9614  -1.7933
    -1.2765  -0.1685   0.8736   1.4689   2.0991   2.2911   2.6955   3.3479
     4.4232   4.9219   5.3545   5.3765   5.7283

          k = 0.0000 0.1768 0.0000 ( 19834 PWs)   bands (ev):

   -45.6781 -44.4453 -44.2937 -43.9334 -43.8502 -43.8414 -43.7927  -3.8807
    -3.7353  -3.5434  -3.4357  -3.4116  -3.3676  -3.3032  -3.2702  -3.2564
    -3.2175  -3.1696  -3.1070  -2.8888  -2.8628  -2.7716  -2.5294  -2.5249
    -2.5143  -2.4417  -2.4173  -2.3577  -2.3121  -2.3008  -2.2864  -2.2504
    -2.1648  -2.1641  -2.1403  -2.0411  -2.0048  -1.9957  -1.9476  -1.7537
    -0.7975   0.1922   0.2658   1.0781   1.6455   2.0222   2.6179   2.9614
     3.3211   4.1759   5.2416   5.3262   5.7658

          k = 0.0000 0.2652 0.0000 ( 19874 PWs)   bands (ev):

   -45.6781 -44.4453 -44.2937 -43.9333 -43.8499 -43.8416 -43.7928  -3.6615
    -3.6477  -3.5377  -3.4292  -3.3791  -3.3509  -3.3003  -3.2622  -3.2070
    -3.1791  -3.0744  -2.9197  -2.8499  -2.8094  -2.6907  -2.5696  -2.5527
    -2.5431  -2.5021  -2.4689  -2.4488  -2.4245  -2.3327  -2.3038  -2.2880
    -2.1704  -2.1214  -2.0272  -1.9987  -1.9954  -1.9733  -1.9360  -1.1940
    -0.8830  -0.2322  -0.1262   0.9130   1.1592   1.9233   2.2520   2.9292
     3.3083   3.7542   4.2275   5.4179   5.8487

          k = 0.0000-0.3536 0.0000 ( 19864 PWs)   bands (ev):

   -45.6781 -44.4453 -44.2937 -43.9333 -43.8497 -43.8417 -43.7928  -3.5984
    -3.5896  -3.4976  -3.4514  -3.4050  -3.3311  -3.3278  -3.2703  -3.1809
    -3.1734  -2.9185  -2.8980  -2.7966  -2.7412  -2.6971  -2.6392  -2.6111
    -2.5847  -2.5674  -2.4802  -2.4792  -2.4604  -2.3331  -2.3200  -2.1611
    -2.1211  -2.0254  -1.9807  -1.9729  -1.9306  -1.8949  -1.8319  -1.2350
    -1.1663  -0.3501  -0.2714   0.8761   0.9392   1.9740   2.0344   2.9058
     3.1646   3.9281   4.3108   4.8118   5.4060

          k = 0.1250-0.0000 0.0000 ( 19806 PWs)   bands (ev):

   -45.6774 -44.4446 -44.2930 -43.9327 -43.8498 -43.8404 -43.7918  -3.9981
    -3.5735  -3.5097  -3.4651  -3.3825  -3.3076  -3.2834  -3.2751  -3.2554
    -3.0968  -2.9962  -2.9485  -2.9443  -2.9044  -2.9015  -2.6600  -2.6432
    -2.6223  -2.5581  -2.4694  -2.4342  -2.3820  -2.3278  -2.2571  -2.1906
    -2.1588  -2.1558  -2.1141  -2.1076  -2.0711  -2.0391  -1.9564  -1.6419
    -1.2831  -0.0980   1.0234   2.1114   2.6550   2.8049   3.3846   4.4039
     4.9290   5.3333   5.5041   5.6441   6.1516

          k = 0.1250 0.0884 0.0000 ( 19853 PWs)   bands (ev):

   -45.6775 -44.4447 -44.2931 -43.9327 -43.8498 -43.8405 -43.7919  -3.9010
    -3.5859  -3.4565  -3.3866  -3.3668  -3.3185  -3.2729  -3.2385  -3.2327
    -3.1045  -2.9712  -2.9621  -2.9271  -2.9104  -2.8494  -2.6803  -2.6603
    -2.6201  -2.5876  -2.4860  -2.4517  -2.4014  -2.3111  -2.2450  -2.2025
    -2.1626  -2.1348  -2.1234  -2.0987  -2.0662  -2.0626  -2.0054  -1.7556
    -1.0800   0.0639   1.1351   1.7961   2.4563   2.6547   3.0114   3.6447
     4.6612   5.1555   5.5632   5.6070   5.9380

          k = 0.1250 0.1768 0.0000 ( 19851 PWs)   bands (ev):

   -45.6774 -44.4446 -44.2930 -43.9326 -43.8494 -43.8406 -43.7919  -3.6609
    -3.5458  -3.3586  -3.3084  -3.2984  -3.2894  -3.2376  -3.2042  -3.1241
    -3.0966  -3.0145  -2.9708  -2.8758  -2.8532  -2.7768  -2.7160  -2.6902
    -2.6284  -2.6211  -2.4920  -2.4668  -2.4033  -2.3305  -2.2788  -2.2516
    -2.2187  -2.1760  -2.1365  -2.1235  -2.0764  -2.0612  -2.0440  -1.6190
    -0.6254   0.3937   0.5264   1.3285   1.9537   2.2842   2.9117   3.2326
     3.5583   4.3514   5.4103   5.5461   6.0028

          k = 0.1250 0.2652 0.0000 ( 19897 PWs)   bands (ev):

   -45.6775 -44.4446 -44.2930 -43.9326 -43.8491 -43.8409 -43.7920  -3.4760
    -3.4635  -3.3177  -3.2569  -3.2300  -3.2213  -3.1664  -3.1568  -3.0920
    -3.0674  -3.0077  -2.9085  -2.8421  -2.8063  -2.7495  -2.7381  -2.6679
    -2.6629  -2.6356  -2.5382  -2.4910  -2.4338  -2.4047  -2.3882  -2.3082
    -2.2242  -2.1670  -2.1244  -2.0819  -2.0520  -2.0315  -1.8353  -1.0457
    -0.6497  -0.0680   0.0237   1.1343   1.4084   2.1168   2.4876   3.1342
     3.5358   4.0525   4.4252   5.6089   6.0934

          k = 0.1250-0.3536 0.0000 ( 19884 PWs)   bands (ev):

   -45.6774 -44.4446 -44.2929 -43.9325 -43.8490 -43.8409 -43.7920  -3.4338
    -3.4111  -3.2638  -3.2465  -3.2284  -3.1936  -3.1719  -3.1542  -3.1427
    -3.0214  -2.9100  -2.8882  -2.7980  -2.7692  -2.7487  -2.7479  -2.6768
    -2.6668  -2.6324  -2.5931  -2.5899  -2.4708  -2.4491  -2.4389  -2.2888
    -2.2215  -2.1272  -2.0688  -2.0608  -2.0230  -1.6812  -1.6230  -1.0749
    -0.9969  -0.2222  -0.1313   1.0855   1.1585   2.1700   2.2236   3.1329
     3.3580   4.1560   4.5853   5.0998   5.6500

          k = 0.1250-0.2652 0.0000 ( 19897 PWs)   bands (ev):

   -45.6775 -44.4446 -44.2930 -43.9326 -43.8491 -43.8409 -43.7920  -3.4760
    -3.4635  -3.3177  -3.2569  -3.2300  -3.2213  -3.1664  -3.1568  -3.0920
    -3.0674  -3.0077  -2.9085  -2.8421  -2.8063  -2.7495  -2.7381  -2.6679
    -2.6629  -2.6356  -2.5382  -2.4910  -2.4338  -2.4047  -2.3882  -2.3082
    -2.2242  -2.1670  -2.1244  -2.0819  -2.0520  -2.0315  -1.8353  -1.0457
    -0.6497  -0.0680   0.0237   1.1343   1.4084   2.1168   2.4876   3.1342
     3.5358   4.0525   4.4252   5.6089   6.0933

          k = 0.1250-0.1768 0.0000 ( 19851 PWs)   bands (ev):

   -45.6774 -44.4446 -44.2930 -43.9326 -43.8494 -43.8406 -43.7919  -3.6609
    -3.5458  -3.3586  -3.3084  -3.2984  -3.2894  -3.2376  -3.2042  -3.1241
    -3.0966  -3.0145  -2.9708  -2.8758  -2.8532  -2.7768  -2.7160  -2.6902
    -2.6284  -2.6211  -2.4920  -2.4668  -2.4033  -2.3305  -2.2788  -2.2516
    -2.2187  -2.1760  -2.1365  -2.1235  -2.0764  -2.0612  -2.0440  -1.6190
    -0.6254   0.3937   0.5264   1.3285   1.9537   2.2842   2.9117   3.2326
     3.5583   4.3514   5.4103   5.5462   6.0028

          k = 0.1250-0.0884 0.0000 ( 19853 PWs)   bands (ev):

   -45.6775 -44.4447 -44.2931 -43.9327 -43.8498 -43.8405 -43.7919  -3.9010
    -3.5859  -3.4565  -3.3866  -3.3668  -3.3185  -3.2729  -3.2385  -3.2327
    -3.1045  -2.9712  -2.9621  -2.9271  -2.9104  -2.8494  -2.6803  -2.6603
    -2.6201  -2.5876  -2.4860  -2.4517  -2.4014  -2.3111  -2.2450  -2.2025
    -2.1626  -2.1348  -2.1234  -2.0987  -2.0662  -2.0626  -2.0054  -1.7556
    -1.0800   0.0639   1.1351   1.7961   2.4563   2.6547   3.0114   3.6447
     4.6612   5.1555   5.5632   5.6070   5.9380

          k = 0.2500-0.0000 0.0000 ( 19968 PWs)   bands (ev):

   -45.6761 -44.4431 -44.2914 -43.9310 -43.8481 -43.8387 -43.7901  -3.7076
    -3.5025  -3.4005  -3.3226  -3.2787  -3.2143  -3.0679  -3.0650  -3.0397
    -2.9734  -2.9558  -2.9291  -2.9245  -2.8612  -2.8216  -2.7601  -2.7120
    -2.5627  -2.5318  -2.4634  -2.4250  -2.3941  -2.3658  -2.3582  -2.3441
    -2.2984  -2.2862  -2.2431  -2.1022  -2.0310  -1.9084  -1.6767  -1.6128
    -0.6552   0.5800   1.7592   2.9180   3.6897   3.8381   4.4668   5.1443
     5.3930   5.4694   5.5446   5.9764   5.9840

          k = 0.2500 0.0884 0.0000 ( 19915 PWs)   bands (ev):

   -45.6759 -44.4429 -44.2913 -43.9309 -43.8478 -43.8387 -43.7900  -3.6219
    -3.4444  -3.4162  -3.2586  -3.2265  -3.2015  -3.0818  -3.0689  -3.0256
    -2.9887  -2.9406  -2.9243  -2.8784  -2.8365  -2.8193  -2.7702  -2.6982
    -2.5626  -2.5210  -2.4789  -2.4624  -2.3864  -2.3474  -2.3372  -2.3283
    -2.2918  -2.2720  -2.2322  -2.1179  -2.0688  -1.9811  -1.7403  -1.5462
    -0.5087   0.7058   1.8398   2.6195   3.3707   3.5740   3.8955   4.3555
     5.0376   5.1827   5.3548   5.8341   5.9521

          k = 0.2500 0.1768 0.0000 ( 19923 PWs)   bands (ev):

   -45.6759 -44.4429 -44.2913 -43.9308 -43.8475 -43.8388 -43.7901  -3.4389
    -3.3755  -3.2813  -3.1799  -3.1642  -3.1221  -3.0988  -3.0459  -3.0237
    -3.0040  -2.9134  -2.8996  -2.8351  -2.8130  -2.7619  -2.7483  -2.6716
    -2.5817  -2.5361  -2.4944  -2.4666  -2.3975  -2.3481  -2.3195  -2.2745
    -2.2620  -2.2387  -2.2120  -2.1851  -2.1521  -1.9914  -1.9290  -1.2042
    -0.1272   0.9601   1.2404   1.9807   2.6958   2.9057   3.6527   3.7585
     4.3507   4.5662   5.1824   5.5877   6.2181

          k = 0.2500 0.2652 0.0000 ( 19896 PWs)   bands (ev):

   -45.6758 -44.4428 -44.2912 -43.9307 -43.8472 -43.8390 -43.7900  -3.3128
    -3.2962  -3.1361  -3.1275  -3.1167  -3.0911  -3.0771  -3.0248  -3.0078
    -2.9191  -2.8940  -2.8653  -2.8249  -2.7661  -2.7206  -2.6499  -2.6319
    -2.6091  -2.5510  -2.5198  -2.4707  -2.4373  -2.4088  -2.3697  -2.3488
    -2.3177  -2.2662  -2.2433  -2.2357  -2.2160  -1.8079  -1.4127  -0.6222
    -0.0121   0.3718   0.5036   1.6686   2.0030   2.5750   3.0822   3.5512
     4.1516   4.6057   4.9811   5.5942   6.7015

          k = 0.2500-0.3536 0.0000 ( 19900 PWs)   bands (ev):

   -45.6758 -44.4428 -44.2912 -43.9307 -43.8471 -43.8390 -43.7901  -3.2739
    -3.2485  -3.1350  -3.1270  -3.1019  -3.0716  -3.0496  -3.0354  -2.9520
    -2.9336  -2.8380  -2.8218  -2.7502  -2.7216  -2.6508  -2.6421  -2.6234
    -2.5973  -2.5866  -2.5562  -2.5372  -2.5066  -2.4365  -2.4305  -2.4054
    -2.3453  -2.3170  -2.2527  -2.2394  -2.2150  -1.1183  -1.0493  -0.6190
    -0.5088   0.1439   0.2709   1.5677   1.6838   2.6263   2.7244   3.6626
     3.8261   4.6576   5.1416   5.8762   6.3244

          k = 0.2500-0.2652 0.0000 ( 19896 PWs)   bands (ev):

   -45.6758 -44.4428 -44.2912 -43.9307 -43.8472 -43.8390 -43.7900  -3.3128
    -3.2962  -3.1361  -3.1275  -3.1167  -3.0911  -3.0771  -3.0248  -3.0078
    -2.9191  -2.8940  -2.8653  -2.8249  -2.7661  -2.7206  -2.6499  -2.6319
    -2.6091  -2.5510  -2.5198  -2.4707  -2.4373  -2.4088  -2.3697  -2.3488
    -2.3177  -2.2662  -2.2433  -2.2357  -2.2160  -1.8079  -1.4127  -0.6222
    -0.0121   0.3718   0.5036   1.6686   2.0030   2.5750   3.0822   3.5512
     4.1516   4.6057   4.9811   5.5942   6.7014

          k = 0.2500-0.1768 0.0000 ( 19923 PWs)   bands (ev):

   -45.6759 -44.4429 -44.2913 -43.9308 -43.8475 -43.8388 -43.7901  -3.4389
    -3.3755  -3.2813  -3.1799  -3.1642  -3.1221  -3.0988  -3.0459  -3.0237
    -3.0040  -2.9134  -2.8996  -2.8351  -2.8130  -2.7619  -2.7483  -2.6716
    -2.5817  -2.5361  -2.4944  -2.4666  -2.3975  -2.3481  -2.3195  -2.2745
    -2.2620  -2.2387  -2.2120  -2.1851  -2.1521  -1.9914  -1.9290  -1.2042
    -0.1272   0.9601   1.2404   1.9807   2.6958   2.9057   3.6527   3.7585
     4.3507   4.5662   5.1824   5.5877   6.2181

          k = 0.2500-0.0884 0.0000 ( 19915 PWs)   bands (ev):

   -45.6759 -44.4429 -44.2913 -43.9309 -43.8478 -43.8387 -43.7900  -3.6219
    -3.4444  -3.4162  -3.2586  -3.2265  -3.2015  -3.0818  -3.0689  -3.0256
    -2.9887  -2.9406  -2.9243  -2.8784  -2.8365  -2.8193  -2.7702  -2.6982
    -2.5626  -2.5210  -2.4789  -2.4624  -2.3864  -2.3474  -2.3372  -2.3283
    -2.2918  -2.2720  -2.2322  -2.1179  -2.0688  -1.9811  -1.7403  -1.5462
    -0.5087   0.7058   1.8398   2.6195   3.3707   3.5740   3.8955   4.3555
     5.0376   5.1828   5.3548   5.8341   5.9521

          k = 0.3750-0.0000 0.0000 ( 19934 PWs)   bands (ev):

   -45.6744 -44.4411 -44.2895 -43.9289 -43.8460 -43.8367 -43.7880  -3.5806
    -3.4884  -3.3934  -3.3901  -3.3320  -3.2748  -3.2712  -3.2632  -3.2036
    -3.1417  -3.1097  -3.0724  -2.9304  -2.8717  -2.8234  -2.7732  -2.7548
    -2.6414  -2.6125  -2.5304  -2.5192  -2.3103  -2.2880  -2.1332  -2.0644
    -2.0061  -1.8748  -1.8498  -1.7784  -1.5959  -1.3084  -1.0041  -0.4337
     0.5020   1.6652   2.7156   2.8638   3.1055   3.7263   4.1036   4.5635
     5.0781   5.3547   5.4258   5.9870   6.1801

          k = 0.3750 0.0884 0.0000 ( 19943 PWs)   bands (ev):

   -45.6744 -44.4411 -44.2895 -43.9289 -43.8459 -43.8367 -43.7881  -3.5051
    -3.4293  -3.4000  -3.3873  -3.3340  -3.2914  -3.2558  -3.2162  -3.1544
    -3.1258  -3.1148  -3.0669  -2.8903  -2.8593  -2.8153  -2.7410  -2.7104
    -2.6485  -2.5774  -2.5299  -2.4951  -2.4032  -2.2161  -2.1606  -2.1112
    -2.0450  -1.8792  -1.8574  -1.7703  -1.6617  -1.2406  -0.9535  -0.3727
     0.5876   1.7580   2.7952   2.9186   3.1320   3.6390   3.8318   4.2445
     4.5053   4.6061   5.1982   5.4761   6.6487

          k = 0.3750 0.1768 0.0000 ( 19944 PWs)   bands (ev):

   -45.6743 -44.4411 -44.2895 -43.9289 -43.8456 -43.8370 -43.7881  -3.4115
    -3.4060  -3.3406  -3.3065  -3.2809  -3.2729  -3.2454  -3.1207  -3.1088
    -3.0838  -3.0647  -3.0192  -2.8541  -2.8094  -2.7428  -2.7027  -2.6383
    -2.6013  -2.5432  -2.4955  -2.4578  -2.4199  -2.2739  -2.2081  -2.1766
    -2.1357  -1.9471  -1.8627  -1.7905  -1.7506  -1.0263  -0.7632  -0.1556
     0.8420   1.9618   2.4005   2.8533   3.0357   3.1639   3.2703   3.4400
     3.6170   4.6278   4.8437   5.6839   6.3800

          k = 0.3750 0.2652 0.0000 ( 19919 PWs)   bands (ev):

   -45.6743 -44.4410 -44.2895 -43.9288 -43.8453 -43.8371 -43.7881  -3.4217
    -3.4165  -3.3089  -3.2950  -3.2098  -3.1904  -3.1390  -3.0879  -3.0492
    -2.9983  -2.9788  -2.8582  -2.8193  -2.7757  -2.6792  -2.6483  -2.5861
    -2.5567  -2.5421  -2.4409  -2.4314  -2.4046  -2.3778  -2.3275  -2.2370
    -2.1795  -1.9439  -1.9207  -1.8163  -1.8087  -0.6138  -0.3337   0.2907
     1.1142   1.2196   1.4617   2.2461   2.6055   2.8345   3.2243   3.4271
     3.6897   4.4037   4.7074   6.0185   6.0392

          k = 0.3750-0.3536 0.0000 ( 19954 PWs)   bands (ev):

   -45.6743 -44.4411 -44.2895 -43.9289 -43.8453 -43.8373 -43.7882  -3.4256
    -3.4216  -3.3109  -3.3010  -3.1610  -3.1429  -3.1321  -3.1077  -2.9942
    -2.9891  -2.8210  -2.8085  -2.7891  -2.7140  -2.6688  -2.6235  -2.6009
    -2.5392  -2.5241  -2.5021  -2.4989  -2.4444  -2.3939  -2.3701  -2.1919
    -2.1406  -1.9619  -1.9124  -1.8653  -1.8287   0.0541   0.1138   0.3576
     0.4836   0.9138   1.0884   2.0540   2.2017   2.9216   3.1143   3.7104
     3.8316   4.1245   4.6116   5.9104   5.9240

          k = 0.3750-0.2652 0.0000 ( 19919 PWs)   bands (ev):

   -45.6743 -44.4410 -44.2895 -43.9288 -43.8453 -43.8371 -43.7881  -3.4217
    -3.4165  -3.3089  -3.2950  -3.2098  -3.1904  -3.1390  -3.0879  -3.0492
    -2.9983  -2.9788  -2.8582  -2.8193  -2.7757  -2.6792  -2.6483  -2.5861
    -2.5567  -2.5421  -2.4409  -2.4314  -2.4046  -2.3778  -2.3275  -2.2370
    -2.1795  -1.9439  -1.9207  -1.8163  -1.8087  -0.6138  -0.3337   0.2907
     1.1142   1.2196   1.4617   2.2461   2.6055   2.8345   3.2243   3.4271
     3.6897   4.4037   4.7074   6.0188   6.0393

          k = 0.3750-0.1768 0.0000 ( 19944 PWs)   bands (ev):

   -45.6743 -44.4411 -44.2895 -43.9289 -43.8456 -43.8370 -43.7881  -3.4115
    -3.4060  -3.3406  -3.3065  -3.2809  -3.2729  -3.2454  -3.1207  -3.1088
    -3.0838  -3.0647  -3.0192  -2.8541  -2.8095  -2.7428  -2.7027  -2.6383
    -2.6013  -2.5432  -2.4955  -2.4578  -2.4199  -2.2739  -2.2081  -2.1766
    -2.1357  -1.9471  -1.8627  -1.7905  -1.7506  -1.0263  -0.7632  -0.1556
     0.8420   1.9618   2.4005   2.8533   3.0357   3.1639   3.2703   3.4400
     3.6170   4.6278   4.8437   5.6839   6.3800

          k = 0.3750-0.0884 0.0000 ( 19943 PWs)   bands (ev):

   -45.6744 -44.4411 -44.2895 -43.9289 -43.8459 -43.8367 -43.7881  -3.5051
    -3.4293  -3.4000  -3.3873  -3.3340  -3.2914  -3.2558  -3.2162  -3.1544
    -3.1258  -3.1148  -3.0669  -2.8903  -2.8593  -2.8153  -2.7410  -2.7104
    -2.6485  -2.5774  -2.5299  -2.4951  -2.4032  -2.2161  -2.1606  -2.1112
    -2.0450  -1.8792  -1.8574  -1.7703  -1.6617  -1.2406  -0.9535  -0.3727
     0.5876   1.7580   2.7952   2.9186   3.1320   3.6390   3.8318   4.2445
     4.5053   4.6061   5.1982   5.4761   6.6489

          k =-0.5000 0.0000 0.0000 ( 19974 PWs)   bands (ev):

   -45.6738 -44.4404 -44.2888 -43.9282 -43.8453 -43.8358 -43.7872  -3.5438
    -3.5140  -3.5063  -3.4790  -3.3809  -3.3675  -3.3018  -3.2620  -3.1904
    -3.1625  -3.1589  -3.1008  -2.9502  -2.9141  -2.9135  -2.7566  -2.7463
    -2.7211  -2.7068  -2.6093  -2.5974  -2.2959  -2.2376  -2.1079  -1.9979
    -1.9249  -1.8599  -1.6344  -1.5876  -1.5221   0.3574   0.5724   0.7099
     1.0049   1.1648   1.7195   1.9262   2.7950   2.9548   4.0380   4.1254
     4.9681   5.6422   5.6446   6.6299   6.7370

          k =-0.5000 0.0884 0.0000 ( 19948 PWs)   bands (ev):

   -45.6737 -44.4403 -44.2888 -43.9281 -43.8451 -43.8359 -43.7872  -3.5199
    -3.5068  -3.4711  -3.4122  -3.3961  -3.3612  -3.3003  -3.2062  -3.2045
    -3.1546  -3.1107  -3.0762  -2.9608  -2.8929  -2.8624  -2.7358  -2.7284
    -2.6845  -2.6611  -2.6080  -2.5704  -2.3877  -2.1609  -2.1228  -2.0568
    -2.0299  -1.7647  -1.7287  -1.5536  -1.5315   0.3927   0.6085   0.8256
     1.0547   1.2274   1.7908   1.9211   2.8764   2.8786   3.8939   4.2010
     4.7965   5.3560   5.4086   5.8604   6.2099

          k =-0.5000 0.1768 0.0000 ( 19956 PWs)   bands (ev):

   -45.6737 -44.4404 -44.2888 -43.9281 -43.8449 -43.8362 -43.7873  -3.5251
    -3.5179  -3.4065  -3.3778  -3.3069  -3.2447  -3.2341  -3.1957  -3.1806
    -3.0659  -3.0293  -2.9921  -2.9404  -2.8954  -2.7254  -2.7013  -2.6669
    -2.6265  -2.5935  -2.5667  -2.5266  -2.4081  -2.2296  -2.1860  -2.1483
    -2.0805  -1.8659  -1.6593  -1.5776  -1.5352   0.5250   0.7432   1.1618
     1.2215   1.4213   1.9220   1.9924   2.6748   3.0246   3.4772   3.7671
     4.0732   4.1426   5.0357   5.1202   5.6208

          k =-0.5000 0.2652 0.0000 ( 19924 PWs)   bands (ev):

   -45.6736 -44.4403 -44.2887 -43.9281 -43.8446 -43.8363 -43.7874  -3.5324
    -3.5266  -3.4110  -3.3954  -3.2214  -3.1679  -3.1678  -3.1455  -3.0206
    -2.9664  -2.9466  -2.9266  -2.8654  -2.8116  -2.6582  -2.6552  -2.6183
    -2.6027  -2.5633  -2.5047  -2.4965  -2.3965  -2.3581  -2.3083  -2.1954
    -2.0834  -1.7579  -1.7354  -1.5784  -1.5562   0.8330   1.0599   1.5497
     1.6887   1.7573   1.9672   2.2078   2.4080   2.4170   2.6497   2.9107
     3.2621   3.3704   4.6204   4.9808   5.3412

          k =-0.5000-0.3536 0.0000 ( 19904 PWs)   bands (ev):

   -45.6735 -44.4403 -44.2887 -43.9280 -43.8444 -43.8364 -43.7873  -3.5348
    -3.5311  -3.4124  -3.4017  -3.2114  -3.1918  -3.1112  -3.0981  -2.9400
    -2.9262  -2.9260  -2.8641  -2.7876  -2.7104  -2.6713  -2.6625  -2.6083
    -2.5815  -2.5284  -2.5137  -2.5048  -2.4788  -2.4646  -2.3516  -2.0880
    -2.0279  -1.7842  -1.7365  -1.5862  -1.5649   1.4072   1.4455   1.6444
     1.6862   2.0144   2.0204   2.1254   2.1382   2.1855   2.3629   2.3974
     2.5923   3.1583   4.5100   4.9343   5.1113

     the Fermi energy is     1.9316 ev

!    total energy              =    -609.95481823 Ry
     estimated scf accuracy    <       0.00000090 Ry
     smearing contrib. (-TS)   =      -0.00200911 Ry
     internal energy E=F+TS    =    -609.95280912 Ry

     The total energy is F=E-TS. E is the sum of the following terms:
     one-electron contribution =   -6074.10895996 Ry
     hartree contribution      =    3077.41260625 Ry
     xc contribution           =    -159.35598876 Ry
     ewald contribution        =    2546.33085917 Ry
     DFT-D3 Dispersion         =      -0.23132583 Ry

     convergence has been achieved in  13 iterations

     negative rho (up, down):  1.483E-05 0.000E+00

     Forces acting on atoms (cartesian axes, Ry/au):

     atom    1 type  1   force =     0.00000038   -0.00241753    0.01665848
     atom    2 type  1   force =    -0.00000026   -0.00120785    0.00150869
     atom    3 type  1   force =     0.00000070   -0.00045921   -0.00410722
     atom    4 type  1   force =    -0.00000037   -0.00022682    0.00107384
     atom    5 type  1   force =    -0.00000122   -0.00001468    0.00421111
     atom    6 type  1   force =    -0.00000004   -0.00004202    0.00911591
     atom    7 type  2   force =    -0.00000008   -0.01178842   -0.01283517
     atom    8 type  2   force =     0.00000034    0.00020931   -0.00376702
     atom    9 type  2   force =    -0.00000042    0.00015888   -0.00041844
     atom   10 type  2   force =     0.00000017    0.00013289   -0.00099098
     atom   11 type  2   force =     0.00000043    0.00003663   -0.00365520
     atom   12 type  2   force =    -0.00000007    0.00001923   -0.00643469
     atom   13 type  2   force =     0.00000044    0.01559959   -0.00035932
     The non-local contrib.  to forces
     atom    1 type  1   force =     0.00000073    0.02430820   -0.01408149
     atom    2 type  1   force =     0.00000040    0.00582273   -0.00964302
     atom    3 type  1   force =     0.00000006    0.00047669    0.00120892
     atom    4 type  1   force =    -0.00000057   -0.00034622    0.00396290
     atom    5 type  1   force =     0.00000024   -0.00056321   -0.00324274
     atom    6 type  1   force =    -0.00000008    0.00021830   -0.05372042
     atom    7 type  2   force =    -0.00000657   -0.00421653    0.02471229
     atom    8 type  2   force =    -0.00000548   -0.00061673   -0.00145539
     atom    9 type  2   force =    -0.00000427   -0.00008129   -0.00119694
     atom   10 type  2   force =    -0.00000417    0.00006434   -0.00150918
     atom   11 type  2   force =    -0.00000426    0.00010444   -0.00614265
     atom   12 type  2   force =    -0.00000474   -0.00003752   -0.03799621
     atom   13 type  2   force =    -0.00001217   -0.00343329    0.05164385
     The ionic contribution  to forces
     atom    1 type  1   force =     0.00000189    0.48168015  103.65067704
     atom    2 type  1   force =     0.00000156   -0.02932483   62.43908948
     atom    3 type  1   force =     0.00000085    0.00128774   17.23619614
     atom    4 type  1   force =     0.00000005   -0.00005571  -26.53110946
     atom    5 type  1   force =     0.00000000    0.00000241  -70.47929119
     atom    6 type  1   force =     0.00000000   -0.00000010 -112.42074229
     atom    7 type  2   force =    -0.00000133   -0.24520160   30.22285353
     atom    8 type  2   force =    -0.00000121    0.00743988   16.47920157
     atom    9 type  2   force =    -0.00000170   -0.00035206    4.75186183
     atom   10 type  2   force =    -0.00000001    0.00001520   -7.24060748
     atom   11 type  2   force =    -0.00000000   -0.00000066  -19.17421407
     atom   12 type  2   force =    -0.00000000    0.00000003  -31.36698942
     atom   13 type  2   force =    -0.00000011   -0.21549044   32.43307430
     The local contribution  to forces
     atom    1 type  1   force =    -0.00000272   -0.50811598 -103.61307024
     atom    2 type  1   force =    -0.00000106    0.02225185  -62.42397868
     atom    3 type  1   force =    -0.00000250   -0.00223496  -17.24070076
     atom    4 type  1   force =    -0.00000018    0.00016421   26.52794736
     atom    5 type  1   force =     0.00000105    0.00054557   70.48366696
     atom    6 type  1   force =     0.00000098   -0.00025881  112.47626335
     atom    7 type  2   force =     0.00000717    0.23751143  -30.25874085
     atom    8 type  2   force =     0.00000640   -0.00660189  -16.47978024
     atom    9 type  2   force =     0.00000625    0.00059354   -4.75065839
     atom   10 type  2   force =     0.00000431    0.00005302    7.24084509
     atom   11 type  2   force =     0.00000440   -0.00006771   19.17502666
     atom   12 type  2   force =     0.00000451    0.00005679   31.39664273
     atom   13 type  2   force =     0.00001211    0.23504631  -32.48370568
     The core correction contribution to forces
     atom    1 type  1   force =    -0.00000007   -0.00070646   -0.00303222
     atom    2 type  1   force =     0.00000001    0.00000427   -0.00067524
     atom    3 type  1   force =    -0.00000006   -0.00000379    0.00063111
     atom    4 type  1   force =     0.00000003   -0.00000433   -0.00001950
     atom    5 type  1   force =     0.00000008   -0.00000396   -0.00021063
     atom    6 type  1   force =     0.00000006    0.00000282    0.00451430
     atom    7 type  2   force =     0.00000000    0.00000000    0.00000000
     atom    8 type  2   force =     0.00000000    0.00000000    0.00000000
     atom    9 type  2   force =     0.00000000    0.00000000    0.00000000
     atom   10 type  2   force =     0.00000000    0.00000000    0.00000000
     atom   11 type  2   force =     0.00000000    0.00000000    0.00000000
     atom   12 type  2   force =     0.00000000    0.00000000    0.00000000
     atom   13 type  2   force =     0.00000000    0.00000000    0.00000000
     The Hubbard contrib.    to forces
     atom    1 type  1   force =     0.00000000    0.00000000    0.00000000
     atom    2 type  1   force =     0.00000000    0.00000000    0.00000000
     atom    3 type  1   force =     0.00000000    0.00000000    0.00000000
     atom    4 type  1   force =     0.00000000    0.00000000    0.00000000
     atom    5 type  1   force =     0.00000000    0.00000000    0.00000000
     atom    6 type  1   force =     0.00000000    0.00000000    0.00000000
     atom    7 type  2   force =     0.00000000    0.00000000    0.00000000
     atom    8 type  2   force =     0.00000000    0.00000000    0.00000000
     atom    9 type  2   force =     0.00000000    0.00000000    0.00000000
     atom   10 type  2   force =     0.00000000    0.00000000    0.00000000
     atom   11 type  2   force =     0.00000000    0.00000000    0.00000000
     atom   12 type  2   force =     0.00000000    0.00000000    0.00000000
     atom   13 type  2   force =     0.00000000    0.00000000    0.00000000
     The SCF correction term to forces
     atom    1 type  1   force =     0.00000048   -0.00001260    0.00086416
     atom    2 type  1   force =    -0.00000121    0.00004529   -0.00112409
     atom    3 type  1   force =     0.00000227    0.00001632   -0.00150693
     atom    4 type  1   force =     0.00000024    0.00001482   -0.00032602
     atom    5 type  1   force =    -0.00000266    0.00000413   -0.00039340
     atom    6 type  1   force =    -0.00000107   -0.00000460   -0.00097524
     atom    7 type  2   force =     0.00000058   -0.00003667    0.00010922
     atom    8 type  2   force =     0.00000057   -0.00001000   -0.00035254
     atom    9 type  2   force =    -0.00000077   -0.00000259   -0.00036880
     atom   10 type  2   force =    -0.00000003   -0.00000003   -0.00007699
     atom   11 type  2   force =     0.00000022    0.00000018   -0.00011426
     atom   12 type  2   force =     0.00000011   -0.00000044   -0.00032488
     atom   13 type  2   force =     0.00000054    0.00004945    0.00053865

     DFT-D3 dispersion contribution to forces:
     atom    1 type  1   force =     0.00000000    0.00042879   -0.00474078
     atom    2 type  1   force =    -0.00000001   -0.00000753   -0.00220177
     atom    3 type  1   force =     0.00000001   -0.00000159    0.00002231
     atom    4 type  1   force =     0.00000000    0.00000003    0.00057655
     atom    5 type  1   force =    -0.00000000   -0.00000000    0.00364011
     atom    6 type  1   force =    -0.00000000    0.00000000    0.00373421
     atom    7 type  2   force =     0.00000000    0.00015456   -0.00181137
     atom    8 type  2   force =     0.00000000   -0.00000232   -0.00142242
     atom    9 type  2   force =     0.00000000    0.00000090   -0.00009815
     atom   10 type  2   force =    -0.00000000   -0.00000002    0.00031558
     atom   11 type  2   force =     0.00000000    0.00000000    0.00174710
     atom   12 type  2   force =    -0.00000000   -0.00000000    0.00219108
     atom   13 type  2   force =     0.00000000   -0.00057282   -0.00195244

     Total force =     0.031994     Total SCF correction =     0.002487


     Computing stress (Cartesian axis) and pressure


     negative rho (up, down):  1.483E-05 0.000E+00
          total   stress  (Ry/bohr**3)                   (kbar)     P=      -13.10
  -0.00009327   0.00000000  -0.00000000          -13.72        0.00       -0.00
   0.00000000  -0.00010149   0.00002391            0.00      -14.93        3.52
  -0.00000000   0.00002391  -0.00007244           -0.00        3.52      -10.66


     BFGS Geometry Optimization
     Energy error            =      0.0E+00 Ry
     Gradient error          =      1.7E-02 Ry/Bohr

     number of scf cycles    =   1
     number of bfgs steps    =   0

     energy             new  =    -609.9548182306 Ry

     new trust radius        =       0.0174272342 bohr
     new conv_thr            =       0.0000010000 Ry


ATOMIC_POSITIONS (angstrom)
Ag            0.7806835465        1.1027784444       20.8532949641
Ag            0.7806821844        3.3115270276       18.8318736766
Ag            0.7806854513        1.1038124305       16.6221591430
Ag            0.7806848870        3.3120462682       14.4167899780
Ag            0.7806844392        1.1040476613       12.2103392889
Ag            0.7806850601        3.3121440589       10.0048239332
Li            2.3420540122        3.3059313378       21.1784498116
Li            2.3420540918        1.1041644360       18.7584753132
Li            2.3420550234        3.3122503689       16.6241111588
Li            2.3420553393        1.1041257529       14.4156973241
Li            2.3420554734        3.3121856786       12.2061766139
Li            2.3420552126        1.1040656095        9.9965949110
Li            2.3420539230        0.3762760365       23.1850517466



     Writing config-only to output data dir ./LiAg_mp-2426_110_hollow_0/LiAg_mp-2426_110_hollow_0.save/
     NEW-OLD atomic charge density approx. for the potential

     negative rho (up, down):  1.511E-05 0.000E+00

     total cpu time spent up to now is       21.2 secs

     per-process dynamical memory:   186.8 Mb

     Self-consistent Calculation

     iteration #  1     ecut=    55.00 Ry     beta= 0.30
     Davidson diagonalization with overlap
     ethr =  1.00E-06,  avg # of iterations =  4.1

     negative rho (up, down):  1.503E-05 0.000E+00

     total cpu time spent up to now is       22.3 secs

     total energy              =    -609.95566176 Ry
     estimated scf accuracy    <       0.00029186 Ry

     iteration #  2     ecut=    55.00 Ry     beta= 0.30
     Davidson diagonalization with overlap
     ethr =  3.35E-07,  avg # of iterations =  6.9

     negative rho (up, down):  1.582E-05 0.000E+00

     total cpu time spent up to now is       23.2 secs

     total energy              =    -609.95478762 Ry
     estimated scf accuracy    <       0.05077474 Ry

     iteration #  3     ecut=    55.00 Ry     beta= 0.30
     Davidson diagonalization with overlap
     ethr =  3.35E-07,  avg # of iterations =  6.4

     negative rho (up, down):  1.607E-05 0.000E+00

     total cpu time spent up to now is       24.0 secs

     total energy              =    -609.95580172 Ry
     estimated scf accuracy    <       0.00001268 Ry

     iteration #  4     ecut=    55.00 Ry     beta= 0.30
     Davidson diagonalization with overlap
     ethr =  1.46E-08,  avg # of iterations =  3.3

     negative rho (up, down):  1.630E-05 0.000E+00

     total cpu time spent up to now is       24.6 secs

     total energy              =    -609.95580248 Ry
     estimated scf accuracy    <       0.00002659 Ry

     iteration #  5     ecut=    55.00 Ry     beta= 0.30
     Davidson diagonalization with overlap
     ethr =  1.46E-08,  avg # of iterations =  1.6

     negative rho (up, down):  1.541E-05 0.000E+00

     total cpu time spent up to now is       25.2 secs

     total energy              =    -609.95580401 Ry
     estimated scf accuracy    <       0.00000677 Ry

     iteration #  6     ecut=    55.00 Ry     beta= 0.30
     Davidson diagonalization with overlap
     ethr =  7.78E-09,  avg # of iterations =  1.4

     negative rho (up, down):  1.519E-05 0.000E+00

     total cpu time spent up to now is       25.6 secs

     total energy              =    -609.95580442 Ry
     estimated scf accuracy    <       0.00000103 Ry

     iteration #  7     ecut=    55.00 Ry     beta= 0.30
     Davidson diagonalization with overlap
     ethr =  1.18E-09,  avg # of iterations =  2.6

     negative rho (up, down):  1.492E-05 0.000E+00

     total cpu time spent up to now is       26.2 secs

     End of self-consistent calculation

          k = 0.0000 0.0000 0.0000 ( 19753 PWs)   bands (ev):

   -45.6679 -44.4455 -44.2806 -43.9288 -43.8448 -43.8365 -43.7897  -4.1983
    -3.8162  -3.5235  -3.5091  -3.4883  -3.4768  -3.3612  -3.3053  -3.2943
    -3.2903  -3.1478  -3.1135  -2.9985  -2.9572  -2.9084  -2.4925  -2.4512
    -2.4477  -2.3842  -2.3779  -2.3109  -2.3009  -2.2764  -2.1808  -2.1784
    -2.1466  -2.0597  -2.0505  -2.0413  -2.0116  -2.0031  -1.9686  -1.6578
    -1.5092  -0.3489   0.7466   1.7995   2.2243   2.4723   2.9793   4.0322
     4.7242   5.1194   5.2338   5.3815   5.9407

          k = 0.0000 0.0884 0.0000 ( 19735 PWs)   bands (ev):

   -45.6679 -44.4454 -44.2806 -43.9287 -43.8446 -43.8365 -43.7896  -4.1071
    -3.7954  -3.5157  -3.4867  -3.4616  -3.4529  -3.3251  -3.3093  -3.2898
    -3.2475  -3.1632  -3.1327  -2.9803  -2.9168  -2.8516  -2.5410  -2.4787
    -2.4651  -2.4087  -2.3783  -2.3099  -2.2835  -2.2332  -2.1862  -2.1723
    -2.1566  -2.1426  -2.0934  -2.0514  -2.0252  -2.0086  -1.9612  -1.7913
    -1.2751  -0.1671   0.8773   1.4722   2.1030   2.2937   2.6969   3.3483
     4.4257   4.9303   5.3591   5.3822   5.7331

          k = 0.0000 0.1768 0.0000 ( 19834 PWs)   bands (ev):

   -45.6680 -44.4455 -44.2807 -43.9288 -43.8445 -43.8368 -43.7898  -3.8772
    -3.7317  -3.5396  -3.4329  -3.4082  -3.3640  -3.2997  -3.2652  -3.2524
    -3.2157  -3.1687  -3.1032  -2.8861  -2.8607  -2.7698  -2.5259  -2.5228
    -2.5121  -2.4373  -2.4132  -2.3551  -2.3090  -2.2981  -2.2847  -2.2485
    -2.1643  -2.1618  -2.1384  -2.0387  -2.0032  -1.9942  -1.9472  -1.7520
    -0.7960   0.1942   0.2692   1.0822   1.6496   2.0235   2.6218   2.9641
     3.3226   4.1819   5.2480   5.3347   5.7659

          k = 0.0000 0.2652 0.0000 ( 19874 PWs)   bands (ev):

   -45.6681 -44.4454 -44.2807 -43.9288 -43.8441 -43.8370 -43.7899  -3.6586
    -3.6444  -3.5338  -3.4257  -3.3759  -3.3479  -3.2978  -3.2590  -3.2032
    -3.1766  -3.0718  -2.9153  -2.8474  -2.8070  -2.6891  -2.5661  -2.5503
    -2.5398  -2.5012  -2.4641  -2.4450  -2.4234  -2.3302  -2.3009  -2.2867
    -2.1686  -2.1189  -2.0248  -1.9961  -1.9937  -1.9720  -1.9354  -1.1927
    -0.8807  -0.2299  -0.1228   0.9151   1.1627   1.9264   2.2566   2.9348
     3.3121   3.7581   4.2321   5.4204   5.8560

          k = 0.0000-0.3536 0.0000 ( 19864 PWs)   bands (ev):

   -45.6680 -44.4454 -44.2806 -43.9287 -43.8439 -43.8371 -43.7899  -3.5956
    -3.5866  -3.4940  -3.4482  -3.4015  -3.3288  -3.3247  -3.2677  -3.1776
    -3.1701  -2.9153  -2.8949  -2.7927  -2.7392  -2.6950  -2.6372  -2.6096
    -2.5812  -2.5651  -2.4792  -2.4751  -2.4566  -2.3307  -2.3172  -2.1590
    -2.1190  -2.0227  -1.9796  -1.9715  -1.9299  -1.8910  -1.8303  -1.2329
    -1.1639  -0.3489  -0.2681   0.8789   0.9416   1.9789   2.0378   2.9143
     3.1682   3.9323   4.3147   4.8150   5.4049

          k = 0.1250-0.0000 0.0000 ( 19806 PWs)   bands (ev):

   -45.6673 -44.4448 -44.2800 -43.9281 -43.8441 -43.8357 -43.7889  -3.9943
    -3.5687  -3.5062  -3.4616  -3.3799  -3.3028  -3.2791  -3.2702  -3.2520
    -3.0942  -2.9936  -2.9468  -2.9422  -2.9026  -2.9000  -2.6568  -2.6410
    -2.6192  -2.5547  -2.4655  -2.4306  -2.3807  -2.3247  -2.2551  -2.1890
    -2.1568  -2.1536  -2.1120  -2.1062  -2.0710  -2.0380  -1.9548  -1.6398
    -1.2816  -0.0967   1.0274   2.1151   2.6583   2.8058   3.3872   4.4031
     4.9361   5.3380   5.5074   5.6459   6.1681

          k = 0.1250 0.0884 0.0000 ( 19853 PWs)   bands (ev):

   -45.6674 -44.4448 -44.2800 -43.9281 -43.8440 -43.8358 -43.7890  -3.8971
    -3.5822  -3.4526  -3.3818  -3.3642  -3.3145  -3.2680  -3.2349  -3.2286
    -3.1019  -2.9692  -2.9605  -2.9253  -2.9076  -2.8480  -2.6768  -2.6585
    -2.6168  -2.5841  -2.4826  -2.4487  -2.3985  -2.3092  -2.2427  -2.2006
    -2.1606  -2.1326  -2.1215  -2.0976  -2.0650  -2.0619  -2.0042  -1.7537
    -1.0785   0.0655   1.1393   1.7995   2.4599   2.6574   3.0131   3.6453
     4.6640   5.1638   5.5717   5.6081   5.9433

          k = 0.1250 0.1768 0.0000 ( 19851 PWs)   bands (ev):

   -45.6673 -44.4447 -44.2799 -43.9280 -43.8436 -43.8360 -43.7890  -3.6568
    -3.5428  -3.3544  -3.3048  -3.2945  -3.2865  -3.2329  -3.1997  -3.1213
    -3.0929  -3.0124  -2.9700  -2.8730  -2.8509  -2.7750  -2.7128  -2.6880
    -2.6246  -2.6175  -2.4895  -2.4637  -2.4001  -2.3288  -2.2770  -2.2495
    -2.2167  -2.1742  -2.1342  -2.1218  -2.0749  -2.0605  -2.0430  -1.6174
    -0.6240   0.3954   0.5299   1.3334   1.9575   2.2857   2.9154   3.2355
     3.5602   4.3571   5.4159   5.5550   6.0027

          k = 0.1250 0.2652 0.0000 ( 19897 PWs)   bands (ev):

   -45.6674 -44.4447 -44.2800 -43.9280 -43.8433 -43.8363 -43.7891  -3.4719
    -3.4608  -3.3144  -3.2533  -3.2267  -3.2171  -3.1620  -3.1532  -3.0892
    -3.0649  -3.0076  -2.9042  -2.8392  -2.8040  -2.7468  -2.7354  -2.6663
    -2.6591  -2.6318  -2.5340  -2.4896  -2.4324  -2.4034  -2.3854  -2.3065
    -2.2218  -2.1654  -2.1219  -2.0804  -2.0509  -2.0306  -1.8329  -1.0445
    -0.6475  -0.0663   0.0274   1.1370   1.4118   2.1200   2.4919   3.1398
     3.5394   4.0568   4.4293   5.6111   6.1007

          k = 0.1250-0.3536 0.0000 ( 19884 PWs)   bands (ev):

   -45.6674 -44.4447 -44.2799 -43.9279 -43.8431 -43.8363 -43.7891  -3.4302
    -3.4080  -3.2607  -3.2426  -3.2257  -3.1909  -3.1679  -3.1498  -3.1385
    -3.0215  -2.9068  -2.8852  -2.7940  -2.7657  -2.7466  -2.7458  -2.6741
    -2.6627  -2.6281  -2.5913  -2.5881  -2.4697  -2.4481  -2.4368  -2.2862
    -2.2196  -2.1245  -2.0670  -2.0599  -2.0220  -1.6777  -1.6212  -1.0730
    -0.9947  -0.2213  -0.1280   1.0884   1.1609   2.1753   2.2268   3.1408
     3.3616   4.1606   4.5887   5.1031   5.6491

          k = 0.1250-0.2652 0.0000 ( 19897 PWs)   bands (ev):

   -45.6674 -44.4447 -44.2800 -43.9280 -43.8433 -43.8363 -43.7891  -3.4719
    -3.4608  -3.3144  -3.2533  -3.2267  -3.2171  -3.1620  -3.1532  -3.0892
    -3.0649  -3.0076  -2.9042  -2.8392  -2.8040  -2.7468  -2.7354  -2.6663
    -2.6591  -2.6318  -2.5340  -2.4896  -2.4324  -2.4034  -2.3854  -2.3065
    -2.2218  -2.1654  -2.1219  -2.0804  -2.0509  -2.0306  -1.8329  -1.0445
    -0.6475  -0.0663   0.0274   1.1370   1.4118   2.1200   2.4919   3.1398
     3.5394   4.0568   4.4293   5.6111   6.1007

          k = 0.1250-0.1768 0.0000 ( 19851 PWs)   bands (ev):

   -45.6673 -44.4447 -44.2799 -43.9280 -43.8436 -43.8360 -43.7890  -3.6568
    -3.5428  -3.3544  -3.3048  -3.2945  -3.2865  -3.2329  -3.1997  -3.1213
    -3.0929  -3.0124  -2.9700  -2.8730  -2.8509  -2.7750  -2.7128  -2.6880
    -2.6246  -2.6175  -2.4895  -2.4637  -2.4001  -2.3288  -2.2770  -2.2495
    -2.2167  -2.1742  -2.1342  -2.1218  -2.0749  -2.0605  -2.0430  -1.6174
    -0.6240   0.3954   0.5299   1.3334   1.9575   2.2857   2.9154   3.2355
     3.5602   4.3571   5.4159   5.5550   6.0028

          k = 0.1250-0.0884 0.0000 ( 19853 PWs)   bands (ev):

   -45.6674 -44.4448 -44.2800 -43.9281 -43.8440 -43.8358 -43.7890  -3.8971
    -3.5822  -3.4526  -3.3818  -3.3642  -3.3145  -3.2680  -3.2349  -3.2286
    -3.1019  -2.9692  -2.9605  -2.9253  -2.9076  -2.8480  -2.6768  -2.6585
    -2.6168  -2.5841  -2.4826  -2.4487  -2.3985  -2.3092  -2.2427  -2.2006
    -2.1606  -2.1326  -2.1215  -2.0976  -2.0650  -2.0619  -2.0042  -1.7537
    -1.0785   0.0655   1.1393   1.7995   2.4599   2.6574   3.0131   3.6453
     4.6640   5.1638   5.5717   5.6081   5.9433

          k = 0.2500-0.0000 0.0000 ( 19968 PWs)   bands (ev):

   -45.6660 -44.4432 -44.2784 -43.9264 -43.8424 -43.8340 -43.7872  -3.7035
    -3.4989  -3.3968  -3.3175  -3.2750  -3.2094  -3.0655  -3.0617  -3.0364
    -2.9692  -2.9531  -2.9273  -2.9219  -2.8587  -2.8187  -2.7575  -2.7088
    -2.5614  -2.5288  -2.4608  -2.4227  -2.3918  -2.3641  -2.3566  -2.3420
    -2.2971  -2.2845  -2.2420  -2.1001  -2.0299  -1.9068  -1.6752  -1.6110
    -0.6536   0.5818   1.7641   2.9212   3.6924   3.8406   4.4696   5.1480
     5.3932   5.4728   5.5503   5.9816   5.9881

          k = 0.2500 0.0884 0.0000 ( 19915 PWs)   bands (ev):

   -45.6659 -44.4430 -44.2783 -43.9263 -43.8421 -43.8340 -43.7871  -3.6177
    -3.4408  -3.4130  -3.2525  -3.2221  -3.1981  -3.0785  -3.0668  -3.0215
    -2.9845  -2.9386  -2.9219  -2.8752  -2.8336  -2.8173  -2.7673  -2.6953
    -2.5608  -2.5188  -2.4768  -2.4598  -2.3842  -2.3457  -2.3351  -2.3263
    -2.2898  -2.2708  -2.2311  -2.1157  -2.0679  -1.9794  -1.7385  -1.5447
    -0.5071   0.7077   1.8449   2.6228   3.3735   3.5774   3.8981   4.3569
     5.0414   5.1865   5.3582   5.8402   5.9567

          k = 0.2500 0.1768 0.0000 ( 19923 PWs)   bands (ev):

   -45.6658 -44.4430 -44.2783 -43.9262 -43.8418 -43.8342 -43.7872  -3.4341
    -3.3727  -3.2781  -3.1744  -3.1598  -3.1186  -3.0961  -3.0425  -3.0196
    -3.0000  -2.9108  -2.8969  -2.8322  -2.8105  -2.7595  -2.7456  -2.6688
    -2.5795  -2.5342  -2.4922  -2.4647  -2.3959  -2.3464  -2.3173  -2.2724
    -2.2599  -2.2372  -2.2100  -2.1834  -2.1515  -1.9895  -1.9268  -1.2028
    -0.1259   0.9614   1.2439   1.9873   2.6989   2.9073   3.6565   3.7610
     4.3541   4.5704   5.1861   5.5894   6.2264

          k = 0.2500 0.2652 0.0000 ( 19896 PWs)   bands (ev):

   -45.6658 -44.4429 -44.2782 -43.9261 -43.8414 -43.8344 -43.7871  -3.3080
    -3.2935  -3.1315  -3.1240  -3.1137  -3.0872  -3.0734  -3.0206  -3.0043
    -2.9163  -2.8914  -2.8610  -2.8220  -2.7635  -2.7173  -2.6473  -2.6299
    -2.6058  -2.5494  -2.5176  -2.4680  -2.4365  -2.4063  -2.3685  -2.3476
    -2.3168  -2.2645  -2.2415  -2.2340  -2.2151  -1.8055  -1.4100  -0.6212
    -0.0101   0.3732   0.5070   1.6727   2.0061   2.5783   3.0857   3.5565
     4.1550   4.6103   4.9850   5.5951   6.7080

          k = 0.2500-0.3536 0.0000 ( 19900 PWs)   bands (ev):

   -45.6658 -44.4429 -44.2782 -43.9261 -43.8412 -43.8345 -43.7872  -3.2699
    -3.2452  -3.1316  -3.1242  -3.0973  -3.0678  -3.0451  -3.0316  -2.9486
    -2.9314  -2.8345  -2.8181  -2.7462  -2.7181  -2.6472  -2.6397  -2.6198
    -2.5955  -2.5843  -2.5535  -2.5363  -2.5053  -2.4356  -2.4288  -2.4054
    -2.3449  -2.3139  -2.2526  -2.2371  -2.2138  -1.1147  -1.0473  -0.6168
    -0.5070   0.1446   0.2739   1.5713   1.6862   2.6315   2.7273   3.6691
     3.8296   4.6628   5.1435   5.8799   6.3247

          k = 0.2500-0.2652 0.0000 ( 19896 PWs)   bands (ev):

   -45.6658 -44.4429 -44.2782 -43.9261 -43.8414 -43.8344 -43.7871  -3.3080
    -3.2935  -3.1315  -3.1240  -3.1137  -3.0872  -3.0734  -3.0206  -3.0043
    -2.9163  -2.8914  -2.8610  -2.8220  -2.7635  -2.7173  -2.6473  -2.6299
    -2.6058  -2.5494  -2.5176  -2.4680  -2.4365  -2.4063  -2.3685  -2.3476
    -2.3168  -2.2645  -2.2415  -2.2340  -2.2151  -1.8055  -1.4100  -0.6212
    -0.0101   0.3732   0.5070   1.6727   2.0061   2.5783   3.0857   3.5565
     4.1550   4.6103   4.9850   5.5950   6.7080

          k = 0.2500-0.1768 0.0000 ( 19923 PWs)   bands (ev):

   -45.6658 -44.4430 -44.2783 -43.9262 -43.8418 -43.8342 -43.7872  -3.4341
    -3.3727  -3.2781  -3.1744  -3.1598  -3.1186  -3.0961  -3.0425  -3.0196
    -3.0000  -2.9108  -2.8969  -2.8322  -2.8105  -2.7595  -2.7456  -2.6688
    -2.5795  -2.5342  -2.4922  -2.4647  -2.3959  -2.3464  -2.3173  -2.2724
    -2.2599  -2.2372  -2.2100  -2.1834  -2.1515  -1.9895  -1.9268  -1.2028
    -0.1259   0.9614   1.2439   1.9873   2.6989   2.9073   3.6565   3.7610
     4.3541   4.5704   5.1861   5.5894   6.2264

          k = 0.2500-0.0884 0.0000 ( 19915 PWs)   bands (ev):

   -45.6659 -44.4430 -44.2783 -43.9263 -43.8421 -43.8340 -43.7871  -3.6177
    -3.4408  -3.4130  -3.2525  -3.2221  -3.1981  -3.0785  -3.0668  -3.0215
    -2.9845  -2.9386  -2.9219  -2.8752  -2.8336  -2.8173  -2.7673  -2.6953
    -2.5608  -2.5188  -2.4768  -2.4598  -2.3842  -2.3457  -2.3351  -2.3263
    -2.2898  -2.2708  -2.2311  -2.1157  -2.0679  -1.9794  -1.7385  -1.5447
    -0.5071   0.7077   1.8449   2.6228   3.3735   3.5774   3.8981   4.3569
     5.0414   5.1865   5.3582   5.8399   5.9563

          k = 0.3750-0.0000 0.0000 ( 19934 PWs)   bands (ev):

   -45.6643 -44.4412 -44.2765 -43.9243 -43.8403 -43.8320 -43.7851  -3.5759
    -3.4854  -3.3900  -3.3877  -3.3283  -3.2702  -3.2669  -3.2593  -3.2000
    -3.1370  -3.1068  -3.0705  -2.9282  -2.8691  -2.8209  -2.7714  -2.7532
    -2.6398  -2.6102  -2.5295  -2.5177  -2.3084  -2.2863  -2.1308  -2.0632
    -2.0048  -1.8733  -1.8479  -1.7764  -1.5941  -1.3054  -1.0007  -0.4319
     0.5039   1.6682   2.7196   2.8682   3.1090   3.7278   4.1064   4.5668
     5.0800   5.3583   5.4282   5.9902   6.1822

          k = 0.3750 0.0884 0.0000 ( 19943 PWs)   bands (ev):

   -45.6643 -44.4412 -44.2765 -43.9243 -43.8402 -43.8321 -43.7851  -3.5002
    -3.4265  -3.3968  -3.3849  -3.3305  -3.2869  -3.2521  -3.2109  -3.1499
    -3.1224  -3.1121  -3.0643  -2.8878  -2.8575  -2.8127  -2.7389  -2.7089
    -2.6463  -2.5765  -2.5279  -2.4939  -2.4013  -2.2145  -2.1582  -2.1098
    -2.0436  -1.8776  -1.8556  -1.7684  -1.6598  -1.2376  -0.9501  -0.3709
     0.5895   1.7608   2.7991   2.9235   3.1354   3.6409   3.8341   4.2467
     4.5115   4.6066   5.1996   5.4784   6.6513

          k = 0.3750 0.1768 0.0000 ( 19944 PWs)   bands (ev):

   -45.6643 -44.4412 -44.2765 -43.9243 -43.8399 -43.8323 -43.7852  -3.4080
    -3.4036  -3.3352  -3.3023  -3.2775  -3.2691  -3.2427  -3.1172  -3.1053
    -3.0793  -3.0610  -3.0164  -2.8511  -2.8073  -2.7411  -2.7003  -2.6362
    -2.5990  -2.5427  -2.4933  -2.4565  -2.4182  -2.2715  -2.2062  -2.1753
    -2.1343  -1.9453  -1.8611  -1.7887  -1.7485  -1.0235  -0.7598  -0.1539
     0.8437   1.9635   2.4041   2.8604   3.0390   3.1678   3.2730   3.4418
     3.6179   4.6307   4.8434   5.6873   6.3835

          k = 0.3750 0.2652 0.0000 ( 19919 PWs)   bands (ev):

   -45.6642 -44.4412 -44.2764 -43.9242 -43.8395 -43.8325 -43.7853  -3.4185
    -3.4137  -3.3041  -3.2908  -3.2049  -3.1877  -3.1364  -3.0852  -3.0445
    -2.9941  -2.9766  -2.8550  -2.8157  -2.7723  -2.6764  -2.6462  -2.5844
    -2.5548  -2.5409  -2.4393  -2.4296  -2.4021  -2.3761  -2.3266  -2.2355
    -2.1779  -1.9414  -1.9197  -1.8142  -1.8069  -0.6109  -0.3305   0.2921
     1.1160   1.2217   1.4645   2.2507   2.6084   2.8378   3.2276   3.4305
     3.6914   4.4032   4.7118   6.0218   6.0417

          k = 0.3750-0.3536 0.0000 ( 19954 PWs)   bands (ev):

   -45.6642 -44.4412 -44.2765 -43.9243 -43.8395 -43.8327 -43.7853  -3.4224
    -3.4187  -3.3064  -3.2964  -3.1570  -3.1394  -3.1292  -3.1058  -2.9899
    -2.9853  -2.8178  -2.8052  -2.7848  -2.7119  -2.6646  -2.6189  -2.5987
    -2.5384  -2.5228  -2.5020  -2.4974  -2.4417  -2.3929  -2.3704  -2.1892
    -2.1392  -1.9590  -1.9114  -1.8635  -1.8269   0.0577   0.1161   0.3611
     0.4851   0.9150   1.0904   2.0576   2.2044   2.9256   3.1167   3.7131
     3.8356   4.1232   4.6168   5.9126   5.9257

          k = 0.3750-0.2652 0.0000 ( 19919 PWs)   bands (ev):

   -45.6642 -44.4412 -44.2764 -43.9242 -43.8395 -43.8325 -43.7853  -3.4185
    -3.4137  -3.3041  -3.2908  -3.2049  -3.1877  -3.1364  -3.0852  -3.0445
    -2.9941  -2.9766  -2.8550  -2.8157  -2.7723  -2.6764  -2.6462  -2.5844
    -2.5548  -2.5409  -2.4393  -2.4296  -2.4021  -2.3761  -2.3266  -2.2355
    -2.1779  -1.9414  -1.9197  -1.8142  -1.8069  -0.6109  -0.3305   0.2921
     1.1160   1.2217   1.4645   2.2507   2.6084   2.8378   3.2276   3.4305
     3.6914   4.4032   4.7118   6.0217   6.0417

          k = 0.3750-0.1768 0.0000 ( 19944 PWs)   bands (ev):

   -45.6643 -44.4412 -44.2765 -43.9243 -43.8399 -43.8323 -43.7852  -3.4080
    -3.4036  -3.3352  -3.3023  -3.2775  -3.2691  -3.2427  -3.1172  -3.1053
    -3.0793  -3.0610  -3.0164  -2.8511  -2.8073  -2.7411  -2.7003  -2.6362
    -2.5990  -2.5427  -2.4933  -2.4565  -2.4182  -2.2715  -2.2062  -2.1753
    -2.1343  -1.9453  -1.8611  -1.7887  -1.7485  -1.0235  -0.7598  -0.1539
     0.8437   1.9635   2.4041   2.8604   3.0390   3.1678   3.2730   3.4418
     3.6179   4.6307   4.8434   5.6872   6.3835

          k = 0.3750-0.0884 0.0000 ( 19943 PWs)   bands (ev):

   -45.6643 -44.4412 -44.2765 -43.9243 -43.8402 -43.8321 -43.7851  -3.5002
    -3.4265  -3.3968  -3.3849  -3.3305  -3.2869  -3.2521  -3.2109  -3.1499
    -3.1224  -3.1121  -3.0643  -2.8878  -2.8575  -2.8127  -2.7389  -2.7089
    -2.6463  -2.5765  -2.5279  -2.4939  -2.4013  -2.2145  -2.1582  -2.1098
    -2.0436  -1.8776  -1.8556  -1.7684  -1.6598  -1.2376  -0.9501  -0.3709
     0.5895   1.7608   2.7991   2.9235   3.1354   3.6409   3.8341   4.2467
     4.5115   4.6066   5.1996   5.4784   6.6514

          k =-0.5000 0.0000 0.0000 ( 19974 PWs)   bands (ev):

   -45.6637 -44.4405 -44.2758 -43.9236 -43.8396 -43.8311 -43.7843  -3.5386
    -3.5105  -3.5039  -3.4765  -3.3767  -3.3639  -3.2981  -3.2571  -3.1876
    -3.1604  -3.1549  -3.0960  -2.9478  -2.9124  -2.9118  -2.7546  -2.7441
    -2.7196  -2.7046  -2.6084  -2.5959  -2.2939  -2.2360  -2.1058  -1.9969
    -1.9235  -1.8583  -1.6327  -1.5858  -1.5200   0.3602   0.5761   0.7135
     1.0078   1.1683   1.7231   1.9277   2.7980   2.9565   4.0391   4.1248
     4.9780   5.6438   5.6483   6.6340   6.7423

          k =-0.5000 0.0884 0.0000 ( 19948 PWs)   bands (ev):

   -45.6636 -44.4405 -44.2757 -43.9235 -43.8394 -43.8312 -43.7843  -3.5161
    -3.5049  -3.4656  -3.4099  -3.3916  -3.3576  -3.2968  -3.2037  -3.1996
    -3.1520  -3.1055  -3.0727  -2.9588  -2.8910  -2.8607  -2.7335  -2.7259
    -2.6827  -2.6605  -2.6060  -2.5692  -2.3858  -2.1592  -2.1210  -2.0551
    -2.0288  -1.7626  -1.7277  -1.5515  -1.5296   0.3956   0.6121   0.8290
     1.0576   1.2308   1.7944   1.9226   2.8795   2.8803   3.8944   4.2002
     4.8050   5.3592   5.4114   5.8653   6.2136

          k =-0.5000 0.1768 0.0000 ( 19956 PWs)   bands (ev):

   -45.6636 -44.4405 -44.2758 -43.9235 -43.8391 -43.8315 -43.7844  -3.5217
    -3.5155  -3.4021  -3.3737  -3.3010  -3.2413  -3.2322  -3.1933  -3.1778
    -3.0602  -3.0247  -2.9892  -2.9381  -2.8937  -2.7237  -2.6987  -2.6642
    -2.6262  -2.5912  -2.5645  -2.5254  -2.4063  -2.2270  -2.1841  -2.1471
    -2.0793  -1.8643  -1.6579  -1.5754  -1.5332   0.5279   0.7469   1.1649
     1.2242   1.4244   1.9237   1.9962   2.6763   3.0284   3.4773   3.7689
     4.0719   4.1463   5.0394   5.1277   5.6238

          k =-0.5000 0.2652 0.0000 ( 19924 PWs)   bands (ev):

   -45.6635 -44.4404 -44.2757 -43.9235 -43.8387 -43.8318 -43.7845  -3.5292
    -3.5238  -3.4063  -3.3912  -3.2188  -3.1652  -3.1628  -3.1428  -3.0166
    -2.9621  -2.9446  -2.9229  -2.8630  -2.8074  -2.6560  -2.6516  -2.6174
    -2.6007  -2.5619  -2.5033  -2.4951  -2.3933  -2.3566  -2.3075  -2.1941
    -2.0814  -1.7559  -1.7343  -1.5761  -1.5545   0.8360   1.0638   1.5526
     1.6919   1.7597   1.9695   2.2128   2.4121   2.4183   2.6530   2.9106
     3.2644   3.3642   4.6238   4.9879   5.3453

          k =-0.5000-0.3536 0.0000 ( 19904 PWs)   bands (ev):

   -45.6635 -44.4404 -44.2756 -43.9234 -43.8386 -43.8318 -43.7844  -3.5316
    -3.5282  -3.4080  -3.3970  -3.2084  -3.1897  -3.1075  -3.0946  -2.9351
    -2.9239  -2.9220  -2.8620  -2.7828  -2.7091  -2.6653  -2.6597  -2.6036
    -2.5818  -2.5283  -2.5111  -2.5036  -2.4771  -2.4636  -2.3519  -2.0850
    -2.0266  -1.7817  -1.7353  -1.5847  -1.5627   1.4120   1.4479   1.6499
     1.6887   2.0193   2.0234   2.1285   2.1408   2.1887   2.3655   2.3963
     2.5927   3.1509   4.5131   4.9407   5.1167

     the Fermi energy is     1.9350 ev

!    total energy              =    -609.95580456 Ry
     estimated scf accuracy    <       0.00000012 Ry
     smearing contrib. (-TS)   =      -0.00200908 Ry
     internal energy E=F+TS    =    -609.95379548 Ry

     The total energy is F=E-TS. E is the sum of the following terms:
     one-electron contribution =   -6073.69141622 Ry
     hartree contribution      =    3077.20867924 Ry
     xc contribution           =    -159.35677449 Ry
     ewald contribution        =    2546.11700714 Ry
     DFT-D3 Dispersion         =      -0.23129116 Ry

     convergence has been achieved in   7 iterations

     negative rho (up, down):  1.492E-05 0.000E+00

     Forces acting on atoms (cartesian axes, Ry/au):

     atom    1 type  1   force =    -0.00000050   -0.00269765    0.01523767
     atom    2 type  1   force =     0.00000130   -0.00116490    0.00152198
     atom    3 type  1   force =    -0.00000011   -0.00043899   -0.00368507
     atom    4 type  1   force =    -0.00000022   -0.00021240    0.00095325
     atom    5 type  1   force =     0.00000013   -0.00001617    0.00364672
     atom    6 type  1   force =     0.00000021   -0.00003860    0.00867193
     atom    7 type  2   force =    -0.00000036   -0.01083395   -0.01178397
     atom    8 type  2   force =    -0.00000011    0.00014007   -0.00298560
     atom    9 type  2   force =    -0.00000026    0.00012698   -0.00029072
     atom   10 type  2   force =    -0.00000001    0.00010927   -0.00094956
     atom   11 type  2   force =    -0.00000009    0.00003107   -0.00319603
     atom   12 type  2   force =    -0.00000007    0.00001314   -0.00614802
     atom   13 type  2   force =     0.00000010    0.01498212   -0.00099258
     The non-local contrib.  to forces
     atom    1 type  1   force =    -0.00000108    0.02422566   -0.01426617
     atom    2 type  1   force =     0.00000041    0.00587106   -0.00918973
     atom    3 type  1   force =    -0.00000011    0.00047013    0.00176576
     atom    4 type  1   force =    -0.00000068   -0.00035380    0.00407131
     atom    5 type  1   force =    -0.00000004   -0.00057520   -0.00308425
     atom    6 type  1   force =    -0.00000004    0.00021973   -0.05295859
     atom    7 type  2   force =    -0.00000640   -0.00375652    0.02470599
     atom    8 type  2   force =    -0.00000542   -0.00066035   -0.00103052
     atom    9 type  2   force =    -0.00000432   -0.00010001   -0.00100991
     atom   10 type  2   force =    -0.00000435    0.00005181   -0.00144030
     atom   11 type  2   force =    -0.00000431    0.00010350   -0.00584571
     atom   12 type  2   force =    -0.00000505   -0.00004133   -0.03801867
     atom   13 type  2   force =    -0.00001191   -0.00364510    0.05209351
     The ionic contribution  to forces
     atom    1 type  1   force =     0.00000187    0.46446861  103.63914863
     atom    2 type  1   force =     0.00000136   -0.02373657   62.43833310
     atom    3 type  1   force =     0.00000050    0.00097571   17.26732482
     atom    4 type  1   force =     0.00000059    0.00049350  -26.50866251
     atom    5 type  1   force =     0.00000124   -0.00041713  -70.47547714
     atom    6 type  1   force =     0.00000055    0.00017605 -112.42276139
     atom    7 type  2   force =    -0.00000114   -0.22146268   30.17929234
     atom    8 type  2   force =    -0.00000142    0.00467241   16.48154933
     atom    9 type  2   force =    -0.00000091   -0.00089946    4.77019749
     atom   10 type  2   force =    -0.00000066   -0.00048640   -7.23833285
     atom   11 type  2   force =    -0.00000151    0.00005669  -19.18038517
     atom   12 type  2   force =    -0.00000038   -0.00012880  -31.39167730
     atom   13 type  2   force =    -0.00000010   -0.22371194   32.44145066
     The local contribution  to forces
     atom    1 type  1   force =    -0.00000152   -0.49146785 -103.60251368
     atom    2 type  1   force =    -0.00000137    0.01685304  -62.42474762
     atom    3 type  1   force =    -0.00000062   -0.00187297  -17.27365793
     atom    4 type  1   force =    -0.00000067   -0.00034975   26.50449767
     atom    5 type  1   force =    -0.00000076    0.00097637   70.47915346
     atom    6 type  1   force =    -0.00000037   -0.00043340  112.47653772
     atom    7 type  2   force =     0.00000714    0.21439101  -30.21398395
     atom    8 type  2   force =     0.00000689   -0.00389576  -16.48209491
     atom    9 type  2   force =     0.00000501    0.00113069   -4.76946060
     atom   10 type  2   force =     0.00000500    0.00054934    7.23840540
     atom   11 type  2   force =     0.00000575   -0.00012604   19.18138067
     atom   12 type  2   force =     0.00000549    0.00018513   31.42149617
     atom   13 type  2   force =     0.00001203    0.24291503  -32.49252214
     The core correction contribution to forces
     atom    1 type  1   force =     0.00000002   -0.00065123   -0.00284845
     atom    2 type  1   force =    -0.00000006   -0.00000647   -0.00064196
     atom    3 type  1   force =    -0.00000000   -0.00000673    0.00060603
     atom    4 type  1   force =    -0.00000000   -0.00000698    0.00000679
     atom    5 type  1   force =    -0.00000003   -0.00000397   -0.00014389
     atom    6 type  1   force =    -0.00000000    0.00000218    0.00454216
     atom    7 type  2   force =     0.00000000    0.00000000    0.00000000
     atom    8 type  2   force =     0.00000000    0.00000000    0.00000000
     atom    9 type  2   force =     0.00000000    0.00000000    0.00000000
     atom   10 type  2   force =     0.00000000    0.00000000    0.00000000
     atom   11 type  2   force =     0.00000000    0.00000000    0.00000000
     atom   12 type  2   force =     0.00000000    0.00000000    0.00000000
     atom   13 type  2   force =     0.00000000    0.00000000    0.00000000
     The Hubbard contrib.    to forces
     atom    1 type  1   force =     0.00000000    0.00000000    0.00000000
     atom    2 type  1   force =     0.00000000    0.00000000    0.00000000
     atom    3 type  1   force =     0.00000000    0.00000000    0.00000000
     atom    4 type  1   force =     0.00000000    0.00000000    0.00000000
     atom    5 type  1   force =     0.00000000    0.00000000    0.00000000
     atom    6 type  1   force =     0.00000000    0.00000000    0.00000000
     atom    7 type  2   force =     0.00000000    0.00000000    0.00000000
     atom    8 type  2   force =     0.00000000    0.00000000    0.00000000
     atom    9 type  2   force =     0.00000000    0.00000000    0.00000000
     atom   10 type  2   force =     0.00000000    0.00000000    0.00000000
     atom   11 type  2   force =     0.00000000    0.00000000    0.00000000
     atom   12 type  2   force =     0.00000000    0.00000000    0.00000000
     atom   13 type  2   force =     0.00000000    0.00000000    0.00000000
     The SCF correction term to forces
     atom    1 type  1   force =     0.00000020    0.00030347    0.00040500
     atom    2 type  1   force =     0.00000097   -0.00013874   -0.00001512
     atom    3 type  1   force =     0.00000010   -0.00000150    0.00030768
     atom    4 type  1   force =     0.00000055    0.00000713    0.00047531
     atom    5 type  1   force =    -0.00000028    0.00000553   -0.00044333
     atom    6 type  1   force =     0.00000005   -0.00000096   -0.00043699
     atom    7 type  2   force =     0.00000002   -0.00014841    0.00003439
     atom    8 type  2   force =    -0.00000017    0.00002289    0.00002850
     atom    9 type  2   force =    -0.00000005   -0.00000391    0.00009316
     atom   10 type  2   force =    -0.00000001   -0.00000387    0.00011602
     atom   11 type  2   force =    -0.00000003   -0.00000109   -0.00007586
     atom   12 type  2   force =    -0.00000013    0.00000017   -0.00012143
     atom   13 type  2   force =     0.00000007   -0.00000491   -0.00003680

     DFT-D3 dispersion contribution to forces:
     atom    1 type  1   force =     0.00000000    0.00042578   -0.00467732
     atom    2 type  1   force =    -0.00000002   -0.00000514   -0.00220636
     atom    3 type  1   force =     0.00000001   -0.00000156   -0.00002111
     atom    4 type  1   force =    -0.00000000   -0.00000042    0.00057500
     atom    5 type  1   force =    -0.00000000    0.00000032    0.00365220
     atom    6 type  1   force =     0.00000000   -0.00000012    0.00375933
     atom    7 type  2   force =     0.00000000    0.00014473   -0.00182241
     atom    8 type  2   force =     0.00000000    0.00000297   -0.00142768
     atom    9 type  2   force =     0.00000000    0.00000174   -0.00010053
     atom   10 type  2   force =     0.00000000    0.00000046    0.00031248
     atom   11 type  2   force =     0.00000000    0.00000010    0.00174037
     atom   12 type  2   force =     0.00000000    0.00000005    0.00218352
     atom   13 type  2   force =     0.00000000   -0.00056889   -0.00196749

     Total force =     0.029766     Total SCF correction =     0.001026


     Computing stress (Cartesian axis) and pressure


     negative rho (up, down):  1.492E-05 0.000E+00
          total   stress  (Ry/bohr**3)                   (kbar)     P=      -13.01
  -0.00009219   0.00000000  -0.00000000          -13.56        0.00       -0.00
   0.00000000  -0.00010065   0.00002323            0.00      -14.81        3.42
  -0.00000000   0.00002323  -0.00007251           -0.00        3.42      -10.67

     Energy error            =      9.9E-04 Ry
     Gradient error          =      1.5E-02 Ry/Bohr

     number of scf cycles    =   2
     number of bfgs steps    =   1

     energy             old  =    -609.9548182306 Ry
     energy             new  =    -609.9558045590 Ry

     CASE: energy            _new < energy            _old


     WARNING: bfgs curvature condition failed, Theta= 0.861
     new trust radius        =       0.0191699576 bohr
     new conv_thr            =       0.0000000986 Ry


ATOMIC_POSITIONS (angstrom)
Ag            0.7806833945        1.1011622952       20.8629639326
Ag            0.7806827098        3.3107996593       18.8328115263
Ag            0.7806855279        1.1035375986       16.6198066785
Ag            0.7806847256        3.3119124616       14.4174005604
Ag            0.7806842757        1.1040379411       12.2126936465
Ag            0.7806851434        3.3121195988       10.0102610698
Li            2.3420538400        3.2990667439       21.1709809249
Li            2.3420541068        1.1042634226       18.7564903420
Li            2.3420548321        3.3123345509       16.6239085853
Li            2.3420553643        1.1041975046       14.4151032620
Li            2.3420555099        3.3122058747       12.2041196044
Li            2.3420551713        1.1040748208        9.9927452710
Li            2.3420540429        0.3856426388       23.1845524593



     Writing config-only to output data dir ./LiAg_mp-2426_110_hollow_0/LiAg_mp-2426_110_hollow_0.save/
     NEW-OLD atomic charge density approx. for the potential

     negative rho (up, down):  1.522E-05 0.000E+00

     total cpu time spent up to now is       27.9 secs

     per-process dynamical memory:   214.9 Mb

     Self-consistent Calculation

     iteration #  1     ecut=    55.00 Ry     beta= 0.30
     Davidson diagonalization with overlap
     ethr =  1.00E-06,  avg # of iterations =  4.0

     Threshold (ethr) on eigenvalues was too large:
     Diagonalizing with lowered threshold

     Davidson diagonalization with overlap
     ethr =  2.91E-08,  avg # of iterations =  4.3

     negative rho (up, down):  1.513E-05 0.000E+00

     total cpu time spent up to now is       29.8 secs

     total energy              =    -609.95681588 Ry
     estimated scf accuracy    <       0.00002867 Ry

     iteration #  2     ecut=    55.00 Ry     beta= 0.30
     Davidson diagonalization with overlap
     ethr =  3.30E-08,  avg # of iterations =  2.4

     negative rho (up, down):  1.592E-05 0.000E+00

     total cpu time spent up to now is       30.3 secs

     total energy              =    -609.95676266 Ry
     estimated scf accuracy    <       0.00295390 Ry

     iteration #  3     ecut=    55.00 Ry     beta= 0.30
     Davidson diagonalization with overlap
     ethr =  3.30E-08,  avg # of iterations =  1.6

     negative rho (up, down):  1.562E-05 0.000E+00

     total cpu time spent up to now is       30.8 secs

     total energy              =    -609.95682353 Ry
     estimated scf accuracy    <       0.00000718 Ry

     iteration #  4     ecut=    55.00 Ry     beta= 0.30
     Davidson diagonalization with overlap
     ethr =  8.26E-09,  avg # of iterations =  2.5

     negative rho (up, down):  1.553E-05 0.000E+00

     total cpu time spent up to now is       31.4 secs

     total energy              =    -609.95682217 Ry
     estimated scf accuracy    <       0.00005046 Ry

[...]
    -2.5243  -2.4781  -2.4081  -2.3720  -2.3487  -2.3272  -2.2660  -2.1033
    -2.0807  -1.8925  -1.8460  -1.7491  -1.7092  -0.5412  -0.2743   0.3061
     1.1728   1.2971   1.5825   2.3380   2.6735   2.9285   3.3294   3.5242
     3.7360   4.3901   4.7929   6.1061   6.1510

          k = 0.3750-0.3536 0.0000 ( 19954 PWs)   bands (ev):

   -45.3266 -44.5195 -44.1269 -43.8123 -43.7504 -43.7480 -43.7295  -3.3763
    -3.3577  -3.2721  -3.2506  -3.1372  -3.1248  -3.1177  -3.0744  -2.9781
    -2.9170  -2.7622  -2.7508  -2.7174  -2.6752  -2.6618  -2.6472  -2.5692
    -2.5179  -2.5003  -2.4588  -2.4336  -2.3457  -2.3356  -2.3179  -2.0761
    -2.0611  -1.8956  -1.8477  -1.7820  -1.7460   0.1367   0.1725   0.4203
     0.5395   0.9502   1.1553   2.1612   2.3120   3.0172   3.1927   3.7824
     3.9156   4.1310   4.6983   5.9894   6.0104

          k = 0.3750-0.2652 0.0000 ( 19919 PWs)   bands (ev):

   -45.3265 -44.5194 -44.1268 -43.8123 -43.7512 -43.7472 -43.7294  -3.3723
    -3.3520  -3.2659  -3.2461  -3.1818  -3.1372  -3.1277  -3.0936  -3.0352
    -2.9525  -2.9000  -2.7921  -2.7605  -2.7313  -2.6786  -2.6618  -2.5668
    -2.5243  -2.4781  -2.4081  -2.3720  -2.3487  -2.3272  -2.2660  -2.1033
    -2.0807  -1.8925  -1.8460  -1.7491  -1.7092  -0.5412  -0.2743   0.3061
     1.1728   1.2971   1.5825   2.3380   2.6735   2.9285   3.3294   3.5242
     3.7360   4.3901   4.7929   6.1061   6.1510

          k = 0.3750-0.1768 0.0000 ( 19944 PWs)   bands (ev):

   -45.3266 -44.5195 -44.1269 -43.8124 -43.7524 -43.7461 -43.7293  -3.3624
    -3.3382  -3.2947  -3.2637  -3.2435  -3.2205  -3.2012  -3.1124  -3.0857
    -3.0516  -3.0114  -2.9989  -2.7888  -2.7663  -2.7487  -2.6996  -2.6541
    -2.5737  -2.4853  -2.3953  -2.3774  -2.3184  -2.2234  -2.1633  -2.1129
    -2.0347  -1.8657  -1.7972  -1.7088  -1.6586  -0.9570  -0.7095  -0.1426
     0.9244   2.0495   2.5041   2.9916   3.1044   3.2330   3.3669   3.5548
     3.6278   4.7412   4.7698   5.8081   6.5077

          k = 0.3750-0.0884 0.0000 ( 19943 PWs)   bands (ev):

   -45.3267 -44.5195 -44.1269 -43.8125 -43.7533 -43.7452 -43.7292  -3.4517
    -3.3897  -3.3488  -3.3223  -3.2838  -3.2432  -3.2010  -3.1756  -3.1196
    -3.1000  -3.0792  -3.0597  -2.8974  -2.8210  -2.7894  -2.7386  -2.7237
    -2.5798  -2.5345  -2.4400  -2.4181  -2.2892  -2.1684  -2.0993  -2.0274
    -1.9545  -1.8287  -1.7712  -1.6850  -1.5732  -1.1761  -0.9053  -0.3581
     0.6678   1.8490   2.8534   3.0538   3.2491   3.6663   3.9437   4.3547
     4.5671   4.6985   5.2366   5.5427   6.7316

          k =-0.5000 0.0000 0.0000 ( 19974 PWs)   bands (ev):

   -45.3260 -44.5188 -44.1262 -43.8118 -43.7529 -43.7442 -43.7283  -3.4862
    -3.4665  -3.4402  -3.4297  -3.3392  -3.2994  -3.2562  -3.2210  -3.1647
    -3.1516  -3.1288  -3.0679  -2.9265  -2.9196  -2.8084  -2.8061  -2.7509
    -2.7035  -2.6120  -2.5479  -2.5075  -2.1949  -2.1827  -2.0280  -1.9272
    -1.8361  -1.7933  -1.5685  -1.5014  -1.4330   0.4268   0.6377   0.7675
     1.0776   1.1907   1.7608   1.8680   2.8573   3.1594   4.1973   4.2032
     5.1466   5.7632   5.7828   6.6900   6.9247

          k =-0.5000 0.0884 0.0000 ( 19948 PWs)   bands (ev):

   -45.3260 -44.5188 -44.1261 -43.8117 -43.7526 -43.7444 -43.7284  -3.4683
    -3.4380  -3.4103  -3.3814  -3.3474  -3.3038  -3.2522  -3.1871  -3.1650
    -3.1410  -3.0814  -3.0447  -2.9075  -2.8797  -2.8326  -2.7612  -2.6988
    -2.6626  -2.6126  -2.5173  -2.4922  -2.2754  -2.1263  -2.0514  -1.9865
    -1.9263  -1.7032  -1.6483  -1.4791  -1.4381   0.4628   0.6752   0.8864
     1.1279   1.2586   1.8307   1.8704   2.9347   3.0717   4.0525   4.2631
     4.9847   5.4220   5.4848   6.0002   6.2800

          k =-0.5000 0.1768 0.0000 ( 19956 PWs)   bands (ev):

   -45.3260 -44.5188 -44.1262 -43.8116 -43.7517 -43.7453 -43.7286  -3.4757
    -3.4501  -3.3649  -3.3219  -3.2562  -3.2252  -3.1982  -3.1781  -3.1666
    -3.0195  -2.9970  -2.9623  -2.8685  -2.8353  -2.7378  -2.6734  -2.6566
    -2.6230  -2.5644  -2.4673  -2.4452  -2.3060  -2.1894  -2.1350  -2.0749
    -1.9669  -1.7976  -1.6014  -1.4927  -1.4459   0.5959   0.8131   1.2287
     1.2966   1.4686   1.8996   2.0365   2.8317   3.0807   3.6183   3.8034
     4.0704   4.3020   5.1536   5.1730   5.7186

          k =-0.5000 0.2652 0.0000 ( 19924 PWs)   bands (ev):

   -45.3259 -44.5187 -44.1261 -43.8115 -43.7503 -43.7464 -43.7286  -3.4836
    -3.4619  -3.3681  -3.3480  -3.2216  -3.1801  -3.1391  -3.0890  -3.0070
    -2.9128  -2.8678  -2.8457  -2.8223  -2.7615  -2.6497  -2.6302  -2.6019
    -2.5590  -2.5481  -2.4288  -2.3964  -2.3930  -2.3440  -2.2440  -2.0490
    -1.9920  -1.7160  -1.6597  -1.5106  -1.4602   0.9033   1.1329   1.6309
     1.7475   1.8266   2.0186   2.2990   2.4974   2.5148   2.7104   3.0222
     3.1889   3.3982   4.7305   5.0178   5.4716

          k =-0.5000-0.3536 0.0000 ( 19904 PWs)   bands (ev):

   -45.3258 -44.5187 -44.1260 -43.8114 -43.7495 -43.7471 -43.7286  -3.4863
    -3.4668  -3.3751  -3.3520  -3.2167  -3.2019  -3.0887  -3.0292  -2.9292
    -2.8602  -2.8480  -2.7995  -2.7026  -2.6822  -2.6501  -2.6399  -2.5970
    -2.5500  -2.5348  -2.4810  -2.4146  -2.4128  -2.3861  -2.3172  -1.9696
    -1.9527  -1.7200  -1.6691  -1.5195  -1.4770   1.4878   1.5002   1.7274
     1.7508   2.0652   2.1925   2.2112   2.2161   2.2831   2.4444   2.4885
     2.7104   2.8805   4.6193   4.9623   5.2661

     the Fermi energy is     2.0132 ev

!    total energy              =    -609.97032041 Ry
     estimated scf accuracy    <          1.5E-09 Ry
     smearing contrib. (-TS)   =      -0.00177642 Ry
     internal energy E=F+TS    =    -609.96854400 Ry

     The total energy is F=E-TS. E is the sum of the following terms:
     one-electron contribution =   -6144.53189070 Ry
     hartree contribution      =    3112.83716667 Ry
     xc contribution           =    -159.38212301 Ry
     ewald contribution        =    2581.34092615 Ry
     DFT-D3 Dispersion         =      -0.23262310 Ry

     convergence has been achieved in   9 iterations

     negative rho (up, down):  1.484E-05 0.000E+00

     Forces acting on atoms (cartesian axes, Ry/au):

     atom    1 type  1   force =    -0.00000006    0.00040614   -0.00045936
     atom    2 type  1   force =    -0.00000000   -0.00037459   -0.00034286
     atom    3 type  1   force =     0.00000008   -0.00007720    0.00062620
     atom    4 type  1   force =    -0.00000006   -0.00001632    0.00029358
     atom    5 type  1   force =     0.00000006   -0.00000434   -0.00062212
     atom    6 type  1   force =    -0.00000002   -0.00000670   -0.00039794
     atom    7 type  2   force =    -0.00000003    0.00091943   -0.00003112
     atom    8 type  2   force =     0.00000005   -0.00073675    0.00015557
     atom    9 type  2   force =    -0.00000008   -0.00013414   -0.00081877
     atom   10 type  2   force =    -0.00000011    0.00007258   -0.00002057
     atom   11 type  2   force =    -0.00000004   -0.00000953    0.00075259
     atom   12 type  2   force =     0.00000006   -0.00000375    0.00016211
     atom   13 type  2   force =     0.00000013   -0.00003481    0.00070270
     The non-local contrib.  to forces
     atom    1 type  1   force =     0.00000013   -0.00015320   -0.02517162
     atom    2 type  1   force =    -0.00000019   -0.00130666   -0.01055490
     atom    3 type  1   force =    -0.00000005   -0.00105977    0.00433115
     atom    4 type  1   force =    -0.00000003    0.00047246   -0.00179591
     atom    5 type  1   force =    -0.00000000    0.00067226    0.00477320
     atom    6 type  1   force =     0.00000002    0.00043364   -0.02826295
     atom    7 type  2   force =    -0.00000669    0.00099475    0.02397149
     atom    8 type  2   force =    -0.00000516   -0.00101123    0.00123461
     atom    9 type  2   force =    -0.00000506    0.00057279    0.00032454
     atom   10 type  2   force =    -0.00000518    0.00003400   -0.00150551
     atom   11 type  2   force =    -0.00000540   -0.00005806   -0.00311997
     atom   12 type  2   force =    -0.00000738   -0.00006359   -0.04297380
     atom   13 type  2   force =    -0.00000980    0.00016623    0.06544062
     The ionic contribution  to forces
     atom    1 type  1   force =    -0.00000127    0.19751862  103.25435776
     atom    2 type  1   force =    -0.00000016   -0.00214434   63.05620993
     atom    3 type  1   force =     0.00000092   -0.19593145   17.26344498
     atom    4 type  1   force =     0.00000149   -0.01804205  -25.65234651
     atom    5 type  1   force =    -0.00000007    0.00063383  -71.63297992
     atom    6 type  1   force =    -0.00000018    0.00105755 -112.44882776
     atom    7 type  2   force =    -0.00000037   -0.00541301   30.26046527
     atom    8 type  2   force =     0.00000244   -0.05369546   16.25493555
     atom    9 type  2   force =    -0.00000239    0.06714598    5.45309736
     atom   10 type  2   force =    -0.00000179    0.00699500   -7.66997964
     atom   11 type  2   force =     0.00000028    0.00051083  -18.65621574
     atom   12 type  2   force =     0.00000011   -0.00046890  -32.64471229
     atom   13 type  2   force =     0.00000100    0.00183338   33.16255103
     The local contribution  to forces
     atom    1 type  1   force =     0.00000109   -0.19662499 -103.22563637
     atom    2 type  1   force =     0.00000033    0.00309689  -63.04389883
     atom    3 type  1   force =    -0.00000079    0.19656449  -17.26569527
     atom    4 type  1   force =    -0.00000150    0.01750261   25.65306891
     atom    5 type  1   force =     0.00000014   -0.00131528   71.62433623
     atom    6 type  1   force =     0.00000013   -0.00149609  112.46656929
     atom    7 type  2   force =     0.00000700    0.00545054  -30.28282074
     atom    8 type  2   force =     0.00000275    0.05392292  -16.25444654
     atom    9 type  2   force =     0.00000735   -0.06789593   -5.45430339
     atom   10 type  2   force =     0.00000684   -0.00696067    7.67140684
     atom   11 type  2   force =     0.00000509   -0.00045898   18.65806330
     atom   12 type  2   force =     0.00000734    0.00052997   32.68608008
     atom   13 type  2   force =     0.00000898   -0.00204992  -33.22485821
     The core correction contribution to forces
     atom    1 type  1   force =     0.00000001   -0.00012581    0.00030196
     atom    2 type  1   force =    -0.00000000    0.00000557   -0.00034824
     atom    3 type  1   force =    -0.00000001    0.00006734   -0.00020071
     atom    4 type  1   force =     0.00000000    0.00004460    0.00009550
     atom    5 type  1   force =     0.00000000    0.00000956    0.00043707
     atom    6 type  1   force =     0.00000000   -0.00000042    0.00512734
     atom    7 type  2   force =     0.00000000    0.00000000    0.00000000
     atom    8 type  2   force =     0.00000000    0.00000000    0.00000000
     atom    9 type  2   force =     0.00000000    0.00000000    0.00000000
     atom   10 type  2   force =     0.00000000    0.00000000    0.00000000
     atom   11 type  2   force =     0.00000000    0.00000000    0.00000000
     atom   12 type  2   force =     0.00000000    0.00000000    0.00000000
     atom   13 type  2   force =     0.00000000    0.00000000    0.00000000
     The Hubbard contrib.    to forces
     atom    1 type  1   force =     0.00000000    0.00000000    0.00000000
     atom    2 type  1   force =     0.00000000    0.00000000    0.00000000
     atom    3 type  1   force =     0.00000000    0.00000000    0.00000000
     atom    4 type  1   force =     0.00000000    0.00000000    0.00000000
     atom    5 type  1   force =     0.00000000    0.00000000    0.00000000
     atom    6 type  1   force =     0.00000000    0.00000000    0.00000000
     atom    7 type  2   force =     0.00000000    0.00000000    0.00000000
     atom    8 type  2   force =     0.00000000    0.00000000    0.00000000
     atom    9 type  2   force =     0.00000000    0.00000000    0.00000000
     atom   10 type  2   force =     0.00000000    0.00000000    0.00000000
     atom   11 type  2   force =     0.00000000    0.00000000    0.00000000
     atom   12 type  2   force =     0.00000000    0.00000000    0.00000000
     atom   13 type  2   force =     0.00000000    0.00000000    0.00000000
     The SCF correction term to forces
     atom    1 type  1   force =    -0.00000002    0.00005420   -0.00003399
     atom    2 type  1   force =     0.00000003   -0.00001200    0.00003290
     atom    3 type  1   force =     0.00000000    0.00004015    0.00002064
     atom    4 type  1   force =    -0.00000002   -0.00001591    0.00003282
     atom    5 type  1   force =    -0.00000001   -0.00000232   -0.00000541
     atom    6 type  1   force =     0.00000001    0.00000049   -0.00000620
     atom    7 type  2   force =     0.00000002   -0.00001229   -0.00001082
     atom    8 type  2   force =     0.00000001    0.00000255   -0.00000254
     atom    9 type  2   force =     0.00000002   -0.00000498    0.00000148
     atom   10 type  2   force =     0.00000002    0.00000240    0.00000126
     atom   11 type  2   force =    -0.00000001    0.00000024    0.00000212
     atom   12 type  2   force =    -0.00000001    0.00000008    0.00000628
     atom   13 type  2   force =    -0.00000005    0.00001011    0.00000243

     DFT-D3 dispersion contribution to forces:
     atom    1 type  1   force =     0.00000000   -0.00026093   -0.00427632
     atom    2 type  1   force =    -0.00000000   -0.00001230   -0.00178293
     atom    3 type  1   force =    -0.00000000    0.00024379   -0.00127381
     atom    4 type  1   force =     0.00000000    0.00002371    0.00123955
     atom    5 type  1   force =    -0.00000000   -0.00000065    0.00281749
     atom    6 type  1   force =     0.00000000   -0.00000013    0.00500312
     atom    7 type  2   force =     0.00000000   -0.00009881   -0.00163554
     atom    8 type  2   force =    -0.00000000    0.00004621   -0.00156473
     atom    9 type  2   force =     0.00000000    0.00004975    0.00006202
     atom   10 type  2   force =     0.00000000    0.00000360    0.00005726
     atom   11 type  2   force =    -0.00000000   -0.00000181    0.00202367
     atom   12 type  2   force =     0.00000000    0.00000045    0.00176262
     atom   13 type  2   force =    -0.00000000    0.00000714   -0.00243239

     Total force =     0.002204     Total SCF correction =     0.000096


     Computing stress (Cartesian axis) and pressure


     negative rho (up, down):  1.484E-05 0.000E+00
          total   stress  (Ry/bohr**3)                   (kbar)     P=      -11.65
  -0.00008193   0.00000000   0.00000000          -12.05        0.00        0.00
   0.00000000  -0.00009686   0.00000207            0.00      -14.25        0.30
   0.00000000   0.00000207  -0.00005869            0.00        0.30       -8.63

     Energy error            =      2.9E-05 Ry
     Gradient error          =      9.2E-04 Ry/Bohr

     bfgs converged in  34 scf cycles and  33 bfgs steps
     (criteria: energy <  1.0E-04 Ry, force <  1.0E-03 Ry/Bohr)

     End of BFGS Geometry Optimization

     Final energy             =    -609.9703204150 Ry

     File ./LiAg_mp-2426_110_hollow_0/LiAg_mp-2426_110_hollow_0.bfgs deleted, as requested
Begin final coordinates

ATOMIC_POSITIONS (angstrom)
Ag            0.7806837363        0.9312661823       20.8886982918
Ag            0.7806830077        3.2083312159       18.8706197416
Ag            0.7806837881        1.0969485644       16.5417456361
Ag            0.7806852977        3.3121558815       14.4799101583
Ag            0.7806855188        1.1035002772       12.1802360829
Ag            0.7806859672        3.3115485959       10.2074804761
Li            2.3420540024        3.1316623556       21.1736550951
Li            2.3420525567        1.0164428022       18.7073684286
Li            2.3420551191        3.3006568242       16.6807609708
Li            2.3420558358        1.1024038487       14.3578174508
Li            2.3420556466        3.3110897804       12.3088543007
Li            2.3420559401        1.1035389148        9.8377836491
Li            2.3420522278        0.9358098678       23.0689075811
End final coordinates



     Writing all to output data dir ./LiAg_mp-2426_110_hollow_0/LiAg_mp-2426_110_hollow_0.save/

     init_run     :      6.57s CPU      7.22s WALL (       1 calls)
     electrons    :    179.55s CPU    204.49s WALL (      34 calls)
     update_pot   :      8.10s CPU      8.53s WALL (      33 calls)
     forces       :      7.86s CPU      9.14s WALL (      34 calls)
     force_dftd3  :      0.42s CPU      0.70s WALL (      34 calls)
     stress       :     34.82s CPU     35.99s WALL (      34 calls)
     stres_dftd3  :      0.40s CPU      0.61s WALL (      34 calls)

     Called by init_run:
     wfcinit      :      0.58s CPU      0.94s WALL (       1 calls)
     potinit      :      2.17s CPU      2.20s WALL (       1 calls)
     hinit0       :      3.70s CPU      3.94s WALL (       1 calls)

     Called by electrons:
     c_bands      :    151.54s CPU    168.82s WALL (     317 calls)
     sum_band     :     21.78s CPU     24.62s WALL (     317 calls)
     v_of_rho     :      2.91s CPU      3.91s WALL (     328 calls)
     newd         :      1.91s CPU      2.00s WALL (     328 calls)
     mix_rho      :      0.39s CPU      0.40s WALL (     317 calls)
     energy_dftd3 :      0.10s CPU      0.10s WALL (      34 calls)

     Called by c_bands:
     init_us_2    :      0.95s CPU      1.04s WALL (    6327 calls)
     init_us_2:cp :      0.94s CPU      1.03s WALL (    6327 calls)
     cegterg      :    142.12s CPU    152.52s WALL (    2853 calls)

     Called by *egterg:
     cdiaghg      :     35.20s CPU     35.50s WALL (   10682 calls)
     h_psi        :     84.82s CPU     92.90s WALL (   11195 calls)
     s_psi        :      4.47s CPU      4.55s WALL (   11195 calls)
     g_psi        :      0.27s CPU      0.28s WALL (    8333 calls)

     Called by h_psi:
     h_psi:calbec :      7.32s CPU      8.76s WALL (   11195 calls)
     vloc_psi     :     72.87s CPU     79.35s WALL (   11195 calls)
     add_vuspsi   :      4.39s CPU      4.54s WALL (   11195 calls)

     General routines
     calbec       :     12.64s CPU     14.69s WALL (   15578 calls)
     fft          :      7.18s CPU      8.52s WALL (    5102 calls)
     ffts         :      2.24s CPU      2.67s WALL (     645 calls)
     fftw         :     80.37s CPU     87.46s WALL (  908145 calls)
     interpolate  :      2.27s CPU      2.51s WALL (     328 calls)

     Parallel routines

     PWSCF        :   3m58.13s CPU   4m28.41s WALL


   This run was terminated on:   7:26:52   6Aug2025            

=------------------------------------------------------------------------------=
   JOB DONE.
=------------------------------------------------------------------------------=
[1754476012.802271] [rome14:3862804:0]           flush.c:57   UCX  ERROR req 0x2ee3840: error during flush: Connection reset by remote peer
[1754476012.802314] [rome14:3862804:0]           flush.c:57   UCX  ERROR req 0x2ee3840: error during flush: Connection reset by remote peer
[1754476012.802941] [rome14:3862830:0]           flush.c:57   UCX  ERROR req 0x2ee4100: error during flush: Connection reset by remote peer
[1754476012.802965] [rome14:3862830:0]           flush.c:57   UCX  ERROR req 0x2ee4100: error during flush: Connection reset by remote peer
[1754476012.803166] [rome14:3862842:0]           flush.c:57   UCX  ERROR req 0x2ee5140: error during flush: Connection reset by remote peer
[1754476012.803190] [rome14:3862842:0]           flush.c:57   UCX  ERROR req 0x2ee5140: error during flush: Connection reset by remote peer
[1754476012.803522] [rome14:3862832:0]           flush.c:57   UCX  ERROR req 0x2ee5a80: error during flush: Connection reset by remote peer
[1754476012.803546] [rome14:3862832:0]           flush.c:57   UCX  ERROR req 0x2ee5a80: error during flush: Connection reset by remote peer
