
     Program PWSCF v.7.2 starts on  6Aug2025 at  7:23:27 

     This program is part of the open-source Quantum ESPRESSO suite
     for quantum simulation of materials; please cite
         "P. Giannozzi et al., J. Phys.:Condens. Matter 21 395502 (2009);
         "P. Giannozzi et al., J. Phys.:Condens. Matter 29 465901 (2017);
         "P. Giannozzi et al., J. Chem. Phys. 152 154105 (2020);
          URL http://www.quantum-espresso.org", 
     in publications or presentations arising from this work. More details at
     http://www.quantum-espresso.org/quote

     Parallel version (MPI & OpenMP), running on     256 processor cores
     Number of MPI processes:               256
     Threads/MPI process:                     1

     MPI processes distributed on     4 nodes
     243147 MiB available memory on the printing compute node when the environment starts

     Reading input from LiAg_mp-2426_110_hollow_1.in

     Current dimensions of program PWSCF are:
     Max number of different atomic species (ntypx) = 10
     Max number of k-points (npk) =  40000
     Max angular momentum in pseudopotentials (lmaxx) =  4
     Message from routine iosys:
     restart disabled: needed files not found

     K-points division:     npool     =       4
     R & G space division:  proc/nbgrp/npool/nimage =      64
     Subspace diagonalization in iterative solution of the eigenvalue problem:
     a serial algorithm will be used


     Parallelization info
     --------------------
     sticks:   dense  smooth     PW     G-vecs:    dense   smooth      PW
     Min          30      13      4                 8502     2473     376
     Max          31      14      5                 8541     2518     416
     Sum        1961     865    259               545233   159021   25681

     Using Slab Decomposition



     bravais-lattice index     =            0
     lattice parameter (alat)  =       5.9011  a.u.
     unit-cell volume          =    2888.7690 (a.u.)^3
     number of atoms/cell      =           13
     number of atomic types    =            2
     number of electrons       =        87.00
     number of Kohn-Sham states=           53
     kinetic-energy cutoff     =      55.0000  Ry
     charge density cutoff     =     500.0000  Ry
     scf convergence threshold =      1.0E-06
     mixing beta               =       0.3000
     number of iterations used =            8  plain     mixing
     energy convergence thresh.=      1.0E-04
     force convergence thresh. =      1.0E-03
     Exchange-correlation= PBE
                           (   1   4   3   4   0   0   0)
     nstep                     =          500


     celldm(1)=   5.901124  celldm(2)=   0.000000  celldm(3)=   0.000000
     celldm(4)=   0.000000  celldm(5)=   0.000000  celldm(6)=   0.000000

     crystal axes: (cart. coord. in units of alat)
               a(1) = (   1.000000   0.000000   0.000000 )  
               a(2) = (   0.000000   1.414214  -0.000000 )  
               a(3) = (   0.000000   0.000000   9.940165 )  

     reciprocal axes: (cart. coord. in units 2 pi/alat)
               b(1) = (  1.000000 -0.000000  0.000000 )  
               b(2) = (  0.000000  0.707107  0.000000 )  
               b(3) = ( -0.000000  0.000000  0.100602 )  


     PseudoPot. # 1 for Ag read from file:
     /home/ecastro/trabajo_final/pseudos/Ag.pbe-n-rrkjus_psl.1.0.0.UPF
     MD5 check sum: 81cdf87bacf708300839c66ee23ce017
     Pseudo is Ultrasoft + core correction, Zval = 11.0
     Generated using &quot;atomic&quot; code by A. Dal Corso  v.6.2.2
     Using radial grid of 1237 points,  6 beta functions with: 
                l(1) =   0
                l(2) =   0
                l(3) =   1
                l(4) =   1
                l(5) =   2
                l(6) =   2
     Q(r) pseudized with 0 coefficients 


     PseudoPot. # 2 for Li read from file:
     /home/ecastro/trabajo_final/pseudos/Li.pbe-s-rrkjus_psl.1.0.0.UPF
     MD5 check sum: 9f98d2529904d60b716d33989e9bc179
     Pseudo is Ultrasoft, Zval =  3.0
     Generated using &quot;atomic&quot; code by A. Dal Corso  v.6.3MaX
     Using radial grid of 1017 points,  4 beta functions with: 
                l(1) =   0
                l(2) =   0
                l(3) =   1
                l(4) =   1
     Q(r) pseudized with 0 coefficients 


     atomic species   valence    mass     pseudopotential
        Ag            11.00   107.86820     Ag( 1.00)
        Li             3.00     6.94100     Li( 1.00)

     No symmetry found



   Cartesian axes

     site n.     atom                  positions (alat units)
         1           Ag  tau(   1) = (   0.2499994   0.3535541   6.6750602  )
         2           Ag  tau(   2) = (   0.2499991   1.0606601   6.0303046  )
         3           Ag  tau(   3) = (   0.2500000   0.3535534   5.3236359  )
         4           Ag  tau(   4) = (   0.2500000   1.0606602   4.6165291  )
         5           Ag  tau(   5) = (   0.2500000   0.3535534   3.9094224  )
         6           Ag  tau(   6) = (   0.2500000   1.0606602   3.2023156  )
         7           Li  tau(   7) = (   0.7499996   1.0606612   6.7841830  )
         8           Li  tau(   8) = (   0.7499996   0.3535528   6.0076941  )
         9           Li  tau(   9) = (   0.7500000   1.0606602   5.3236359  )
        10           Li  tau(  10) = (   0.7500000   0.3535534   4.6165291  )
        11           Li  tau(  11) = (   0.7500000   1.0606602   3.9094224  )
        12           Li  tau(  12) = (   0.7500000   0.3535534   3.2023156  )
        13           Li  tau(  13) = (   0.2499996   0.8249588   7.4246461  )

     --------------------------------------------
     DFT-D3 Dispersion Correction (no 3-body):
     --------------------------------------------
       Reference C6 values for interpolation: 

         atom   Coordination number   C6
         Li         0.000          2326.89
         Li         0.987           170.64
         Ag         0.000           853.49
         Ag         0.968           537.23

       Values used:

         atom   Coordination number  R0_AB[au]  C6      C8
         Ag         8.771            3.147    537.23  47741.54
         Ag        10.346            3.147    537.23  47741.54
         Ag        10.198            3.147    537.23  47741.54
         Ag        10.144            3.147    537.23  47741.54
         Ag        10.124            3.147    537.23  47741.54
         Ag         7.371            3.147    537.23  47741.54
         Li         9.448            3.303    170.64  12899.87
         Li        11.059            3.303    170.64  12899.87
         Li        11.350            3.303    170.64  12899.87
         Li        11.222            3.303    170.64  12899.87
         Li        11.194            3.303    170.64  12899.87
         Li         8.083            3.303    170.64  12899.87
         Li         4.223            3.303    170.64  12899.87

         Molecular C6 ( Ry / a.u.^6 ) =     52003.73


     number of k points=    34  Methfessel-Paxton smearing, width (Ry)=  0.0300
                       cart. coord. in units 2pi/alat
        k(    1) = (   0.0000000   0.0000000   0.0000000), wk =   0.0312500
        k(    2) = (   0.0000000   0.0883883   0.0000000), wk =   0.0625000
        k(    3) = (   0.0000000   0.1767767   0.0000000), wk =   0.0625000
        k(    4) = (   0.0000000   0.2651650   0.0000000), wk =   0.0625000
        k(    5) = (   0.0000000  -0.3535534   0.0000000), wk =   0.0312500
        k(    6) = (   0.1250000  -0.0000000   0.0000000), wk =   0.0625000
        k(    7) = (   0.1250000   0.0883883   0.0000000), wk =   0.0625000
        k(    8) = (   0.1250000   0.1767767   0.0000000), wk =   0.0625000
        k(    9) = (   0.1250000   0.2651650   0.0000000), wk =   0.0625000
        k(   10) = (   0.1250000  -0.3535534   0.0000000), wk =   0.0625000
        k(   11) = (   0.1250000  -0.2651650   0.0000000), wk =   0.0625000
        k(   12) = (   0.1250000  -0.1767767   0.0000000), wk =   0.0625000
        k(   13) = (   0.1250000  -0.0883883   0.0000000), wk =   0.0625000
        k(   14) = (   0.2500000  -0.0000000   0.0000000), wk =   0.0625000
        k(   15) = (   0.2500000   0.0883883   0.0000000), wk =   0.0625000
        k(   16) = (   0.2500000   0.1767767   0.0000000), wk =   0.0625000
        k(   17) = (   0.2500000   0.2651650   0.0000000), wk =   0.0625000
        k(   18) = (   0.2500000  -0.3535534   0.0000000), wk =   0.0625000
        k(   19) = (   0.2500000  -0.2651650   0.0000000), wk =   0.0625000
        k(   20) = (   0.2500000  -0.1767767   0.0000000), wk =   0.0625000
        k(   21) = (   0.2500000  -0.0883883   0.0000000), wk =   0.0625000
        k(   22) = (   0.3750000  -0.0000000   0.0000000), wk =   0.0625000
        k(   23) = (   0.3750000   0.0883883   0.0000000), wk =   0.0625000
        k(   24) = (   0.3750000   0.1767767   0.0000000), wk =   0.0625000
        k(   25) = (   0.3750000   0.2651650   0.0000000), wk =   0.0625000
        k(   26) = (   0.3750000  -0.3535534   0.0000000), wk =   0.0625000
        k(   27) = (   0.3750000  -0.2651650   0.0000000), wk =   0.0625000
        k(   28) = (   0.3750000  -0.1767767   0.0000000), wk =   0.0625000
        k(   29) = (   0.3750000  -0.0883883   0.0000000), wk =   0.0625000
        k(   30) = (  -0.5000000   0.0000000   0.0000000), wk =   0.0312500
        k(   31) = (  -0.5000000   0.0883883   0.0000000), wk =   0.0625000
        k(   32) = (  -0.5000000   0.1767767   0.0000000), wk =   0.0625000
        k(   33) = (  -0.5000000   0.2651650   0.0000000), wk =   0.0625000
        k(   34) = (  -0.5000000  -0.3535534   0.0000000), wk =   0.0312500

     Dense  grid:   545233 G-vectors     FFT dimensions: (  45,  60, 432)

     Smooth grid:   159021 G-vectors     FFT dimensions: (  27,  40, 288)

     Estimated max dynamical RAM per process >      18.66 MB

     Estimated total dynamical RAM >       4.28 GB
     Cannot read rho : file not found

     Initial potential from superposition of free atoms

     starting charge      86.9653, renormalised to      87.0000

     negative rho (up, down):  4.888E-05 0.000E+00
     Message from routine qexsd_readschema :
     xml data file ./LiAg_mp-2426_110_hollow_1/LiAg_mp-2426_110_hollow_1.save/data-fi
     Cannot read wfcs: file not found
     Starting wfcs are   89 randomized atomic wfcs

     total cpu time spent up to now is        7.7 secs

     per-process dynamical memory:   177.1 Mb

     Self-consistent Calculation

     iteration #  1     ecut=    55.00 Ry     beta= 0.30
     Davidson diagonalization with overlap
     c_bands:  1 eigenvalues not converged
     c_bands:  1 eigenvalues not converged
     ethr =  1.00E-05,  avg # of iterations = 17.3

     negative rho (up, down):  4.064E-05 0.000E+00

     total cpu time spent up to now is       10.5 secs

     total energy              =    -609.42185959 Ry
     estimated scf accuracy    <       1.40754431 Ry

     iteration #  2     ecut=    55.00 Ry     beta= 0.30
     Davidson diagonalization with overlap
     ethr =  1.62E-03,  avg # of iterations =  9.6

     negative rho (up, down):  5.725E-05 0.000E+00

     total cpu time spent up to now is       11.6 secs

     total energy              =    -607.09554345 Ry
     estimated scf accuracy    <      69.52296788 Ry

     iteration #  3     ecut=    55.00 Ry     beta= 0.30
     Davidson diagonalization with overlap
     ethr =  1.62E-03,  avg # of iterations =  5.9

     negative rho (up, down):  6.087E-05 0.000E+00

     total cpu time spent up to now is       12.6 secs

     total energy              =    -609.65119413 Ry
     estimated scf accuracy    <      10.89972479 Ry

     iteration #  4     ecut=    55.00 Ry     beta= 0.30
     Davidson diagonalization with overlap
     ethr =  1.62E-03,  avg # of iterations =  2.6

     negative rho (up, down):  2.357E-05 0.000E+00

     total cpu time spent up to now is       14.5 secs

     total energy              =    -609.92911834 Ry
     estimated scf accuracy    <       1.03629617 Ry

     iteration #  5     ecut=    55.00 Ry     beta= 0.30
     Davidson diagonalization with overlap
     ethr =  1.19E-03,  avg # of iterations =  1.5

     negative rho (up, down):  9.698E-06 0.000E+00

     total cpu time spent up to now is       14.9 secs

     total energy              =    -609.94427400 Ry
     estimated scf accuracy    <       0.19493325 Ry

     iteration #  6     ecut=    55.00 Ry     beta= 0.30
     Davidson diagonalization with overlap
     ethr =  2.24E-04,  avg # of iterations =  3.9

     negative rho (up, down):  3.212E-06 0.000E+00

     total cpu time spent up to now is       15.6 secs

     total energy              =    -609.94103342 Ry
     estimated scf accuracy    <       0.08012350 Ry

     iteration #  7     ecut=    55.00 Ry     beta= 0.30
     Davidson diagonalization with overlap
     ethr =  9.21E-05,  avg # of iterations =  7.4

     negative rho (up, down):  1.489E-06 0.000E+00

     total cpu time spent up to now is       16.5 secs

     total energy              =    -609.94148310 Ry
     estimated scf accuracy    <       0.02014878 Ry

     iteration #  8     ecut=    55.00 Ry     beta= 0.30
     Davidson diagonalization with overlap
     ethr =  2.32E-05,  avg # of iterations =  6.6

     negative rho (up, down):  2.157E-06 0.000E+00

     total cpu time spent up to now is       17.3 secs

     total energy              =    -609.94178836 Ry
     estimated scf accuracy    <       0.00281325 Ry

     iteration #  9     ecut=    55.00 Ry     beta= 0.30
     Davidson diagonalization with overlap
     ethr =  3.23E-06,  avg # of iterations =  8.4

     negative rho (up, down):  5.546E-06 0.000E+00

     total cpu time spent up to now is       18.2 secs

     total energy              =    -609.94204581 Ry
     estimated scf accuracy    <       0.00042850 Ry

     iteration # 10     ecut=    55.00 Ry     beta= 0.30
     Davidson diagonalization with overlap
     ethr =  4.93E-07,  avg # of iterations =  2.2

     negative rho (up, down):  1.121E-05 0.000E+00

     total cpu time spent up to now is       18.8 secs

     total energy              =    -609.94209695 Ry
     estimated scf accuracy    <       0.00018575 Ry

     iteration # 11     ecut=    55.00 Ry     beta= 0.30
     Davidson diagonalization with overlap
     ethr =  2.14E-07,  avg # of iterations =  2.6

     negative rho (up, down):  1.055E-05 0.000E+00

     total cpu time spent up to now is       19.3 secs

     total energy              =    -609.94211626 Ry
     estimated scf accuracy    <       0.00002489 Ry

     iteration # 12     ecut=    55.00 Ry     beta= 0.30
     Davidson diagonalization with overlap
     ethr =  2.86E-08,  avg # of iterations =  3.5

     negative rho (up, down):  1.436E-05 0.000E+00

     total cpu time spent up to now is       20.0 secs

     total energy              =    -609.94211886 Ry
     estimated scf accuracy    <       0.00000531 Ry

     iteration # 13     ecut=    55.00 Ry     beta= 0.30
     Davidson diagonalization with overlap
     ethr =  6.10E-09,  avg # of iterations =  5.7

     negative rho (up, down):  1.531E-05 0.000E+00

     total cpu time spent up to now is       20.8 secs

     total energy              =    -609.94212000 Ry
     estimated scf accuracy    <       0.00000134 Ry

     iteration # 14     ecut=    55.00 Ry     beta= 0.30
     Davidson diagonalization with overlap
     ethr =  1.55E-09,  avg # of iterations =  2.2

     negative rho (up, down):  1.452E-05 0.000E+00

     total cpu time spent up to now is       21.4 secs

     End of self-consistent calculation

          k = 0.0000 0.0000 0.0000 ( 19753 PWs)   bands (ev):

   -45.7285 -44.4550 -44.1461 -43.9385 -43.8601 -43.8345 -43.8010  -4.2022
    -3.8107  -3.5286  -3.5140  -3.4945  -3.4557  -3.3724  -3.3099  -3.3011
    -3.2814  -3.1412  -3.0992  -3.0052  -2.9638  -2.9202  -2.5010  -2.4588
    -2.4523  -2.3847  -2.3796  -2.2892  -2.2879  -2.2726  -2.1786  -2.1735
    -2.1499  -2.0514  -2.0511  -2.0263  -2.0072  -1.9982  -1.9793  -1.6664
    -1.5027  -0.3538   0.7279   1.7899   2.2200   2.4823   2.9852   4.0501
     4.7234   5.1121   5.2606   5.3547   5.8309

          k = 0.0000 0.0884 0.0000 ( 19735 PWs)   bands (ev):

   -45.7285 -44.4549 -44.1460 -43.9385 -43.8600 -43.8344 -43.8010  -4.1107
    -3.7910  -3.5095  -3.4864  -3.4642  -3.4543  -3.3300  -3.3045  -3.2966
    -3.2512  -3.1533  -3.1196  -2.9926  -2.9136  -2.8606  -2.5504  -2.4837
    -2.4711  -2.4112  -2.3741  -2.3041  -2.2666  -2.2250  -2.1938  -2.1735
    -2.1629  -2.1394  -2.0755  -2.0547  -2.0098  -1.9936  -1.9722  -1.7992
    -1.2723  -0.1700   0.8597   1.4757   2.0857   2.3094   2.6921   3.3391
     4.4229   4.9301   5.3516   5.3666   5.7197

          k = 0.0000 0.1768 0.0000 ( 19834 PWs)   bands (ev):

   -45.7286 -44.4550 -44.1461 -43.9385 -43.8600 -43.8345 -43.8011  -3.8813
    -3.7302  -3.5242  -3.4389  -3.4144  -3.3485  -3.3040  -3.2770  -3.2575
    -3.1842  -3.1720  -3.1041  -2.8940  -2.8647  -2.7660  -2.5294  -2.5268
    -2.5179  -2.4372  -2.4114  -2.3655  -2.2988  -2.2892  -2.2879  -2.2544
    -2.1597  -2.1551  -2.1398  -2.0397  -1.9917  -1.9748  -1.9579  -1.7566
    -0.7899   0.2015   0.2593   1.0717   1.6219   2.0408   2.5881   3.0096
     3.2704   4.1852   5.2419   5.3290   5.7627

          k = 0.0000 0.2652 0.0000 ( 19874 PWs)   bands (ev):

   -45.7287 -44.4550 -44.1461 -43.9385 -43.8599 -43.8344 -43.8013  -3.6655
    -3.6492  -3.5270  -3.4083  -3.3773  -3.3509  -3.2747  -3.2431  -3.2118
    -3.1839  -3.0744  -2.9170  -2.8530  -2.8083  -2.6853  -2.5698  -2.5551
    -2.5392  -2.4971  -2.4629  -2.4436  -2.4296  -2.3237  -2.2908  -2.2902
    -2.1709  -2.1137  -2.0325  -2.0077  -1.9725  -1.9588  -1.9446  -1.1905
    -0.8857  -0.2308  -0.1230   0.8856   1.1606   1.9235   2.2252   2.9176
     3.3523   3.7744   4.2112   5.3631   5.8752

          k = 0.0000-0.3536 0.0000 ( 19864 PWs)   bands (ev):

   -45.7286 -44.4549 -44.1461 -43.9384 -43.8598 -43.8344 -43.8013  -3.6000
    -3.5949  -3.4991  -3.4573  -3.3445  -3.3400  -3.2863  -3.2776  -3.1888
    -3.1732  -2.9231  -2.8944  -2.8040  -2.7373  -2.6993  -2.6416  -2.5850
    -2.5744  -2.5695  -2.4921  -2.4739  -2.4547  -2.3214  -2.3133  -2.1520
    -2.1228  -2.0249  -1.9695  -1.9502  -1.9390  -1.8912  -1.8394  -1.2414
    -1.1693  -0.3505  -0.2753   0.8636   0.9267   1.9571   2.0353   2.8484
     3.2555   3.9408   4.3858   4.7311   5.2772

          k = 0.1250-0.0000 0.0000 ( 19806 PWs)   bands (ev):

   -45.7279 -44.4543 -44.1454 -43.9378 -43.8593 -43.8338 -43.8002  -3.9998
    -3.5698  -3.5124  -3.4677  -3.3853  -3.3070  -3.2877  -3.2729  -3.2334
    -3.0890  -3.0007  -2.9504  -2.9354  -2.9124  -2.8906  -2.6612  -2.6467
    -2.6263  -2.5527  -2.4488  -2.4169  -2.3900  -2.2841  -2.2592  -2.1787
    -2.1620  -2.1588  -2.1094  -2.0965  -2.0803  -2.0236  -1.9585  -1.6471
    -1.2742  -0.1002   1.0059   2.1033   2.6516   2.8029   3.3910   4.4203
     4.9215   5.3230   5.5041   5.6439   6.0441

          k = 0.1250 0.0884 0.0000 ( 19853 PWs)   bands (ev):

   -45.7280 -44.4543 -44.1455 -43.9379 -43.8594 -43.8338 -43.8003  -3.9022
    -3.5858  -3.4581  -3.3879  -3.3662  -3.3158  -3.2735  -3.2399  -3.2159
    -3.0967  -2.9801  -2.9498  -2.9176  -2.9029  -2.8569  -2.6819  -2.6633
    -2.6228  -2.5853  -2.4741  -2.4376  -2.3835  -2.2984  -2.2392  -2.1939
    -2.1592  -2.1352  -2.1162  -2.0946  -2.0748  -2.0625  -1.9883  -1.7610
    -1.0732   0.0637   1.1187   1.8032   2.4395   2.6668   2.9932   3.6329
     4.6553   5.1488   5.5567   5.6011   5.9175

          k = 0.1250 0.1768 0.0000 ( 19851 PWs)   bands (ev):

   -45.7279 -44.4543 -44.1454 -43.9377 -43.8592 -43.8337 -43.8004  -3.6617
    -3.5469  -3.3590  -3.3093  -3.2972  -3.2875  -3.2378  -3.1900  -3.1188
    -3.0940  -2.9836  -2.9734  -2.8794  -2.8551  -2.7736  -2.7165  -2.6916
    -2.6266  -2.6192  -2.4874  -2.4485  -2.3832  -2.3241  -2.2757  -2.2504
    -2.2181  -2.1813  -2.1347  -2.1145  -2.0661  -2.0608  -2.0430  -1.6187
    -0.6157   0.4043   0.5197   1.3177   1.9244   2.2957   2.8744   3.2710
     3.5043   4.3568   5.4037   5.5527   5.9980

          k = 0.1250 0.2652 0.0000 ( 19897 PWs)   bands (ev):

   -45.7280 -44.4543 -44.1454 -43.9377 -43.8591 -43.8337 -43.8005  -3.4778
    -3.4669  -3.3197  -3.2577  -3.2301  -3.2093  -3.1699  -3.1488  -3.0678
    -3.0379  -3.0200  -2.9049  -2.8452  -2.8051  -2.7515  -2.7369  -2.6644
    -2.6628  -2.6305  -2.5189  -2.4869  -2.4353  -2.4037  -2.3618  -2.3032
    -2.2157  -2.1736  -2.1283  -2.0619  -2.0444  -2.0372  -1.8404  -1.0389
    -0.6515  -0.0573   0.0215   1.0961   1.4108   2.1049   2.4564   3.1119
     3.5806   4.0611   4.4111   5.5538   6.1094

          k = 0.1250-0.3536 0.0000 ( 19884 PWs)   bands (ev):

   -45.7280 -44.4542 -44.1453 -43.9376 -43.8591 -43.8336 -43.8005  -3.4356
    -3.4154  -3.2670  -3.2517  -3.2292  -3.2018  -3.1614  -3.1474  -3.0735
    -3.0338  -2.9114  -2.8859  -2.8043  -2.7683  -2.7514  -2.7487  -2.6785
    -2.6610  -2.6216  -2.5966  -2.5527  -2.4756  -2.4442  -2.4328  -2.2672
    -2.2236  -2.1191  -2.0609  -2.0479  -2.0272  -1.6742  -1.6302  -1.0728
    -1.0037  -0.2119  -0.1412   1.0506   1.1557   2.1317   2.2341   3.0487
     3.4632   4.1623   4.6447   5.0081   5.5464

          k = 0.1250-0.2652 0.0000 ( 19897 PWs)   bands (ev):

   -45.7280 -44.4543 -44.1454 -43.9377 -43.8591 -43.8337 -43.8005  -3.4778
    -3.4669  -3.3197  -3.2577  -3.2301  -3.2093  -3.1699  -3.1488  -3.0678
    -3.0379  -3.0200  -2.9049  -2.8452  -2.8051  -2.7515  -2.7369  -2.6644
    -2.6628  -2.6305  -2.5189  -2.4869  -2.4353  -2.4037  -2.3618  -2.3032
    -2.2157  -2.1736  -2.1283  -2.0619  -2.0444  -2.0372  -1.8404  -1.0389
    -0.6515  -0.0573   0.0215   1.0961   1.4108   2.1049   2.4564   3.1119
     3.5806   4.0611   4.4111   5.5538   6.1095

          k = 0.1250-0.1768 0.0000 ( 19851 PWs)   bands (ev):

   -45.7279 -44.4543 -44.1454 -43.9377 -43.8592 -43.8337 -43.8004  -3.6617
    -3.5469  -3.3590  -3.3093  -3.2972  -3.2875  -3.2378  -3.1900  -3.1188
    -3.0940  -2.9836  -2.9734  -2.8794  -2.8551  -2.7736  -2.7165  -2.6916
    -2.6266  -2.6192  -2.4874  -2.4485  -2.3832  -2.3241  -2.2757  -2.2504
    -2.2181  -2.1813  -2.1347  -2.1145  -2.0661  -2.0608  -2.0430  -1.6187
    -0.6157   0.4043   0.5197   1.3177   1.9244   2.2957   2.8744   3.2710
     3.5043   4.3568   5.4037   5.5528   5.9980

          k = 0.1250-0.0884 0.0000 ( 19853 PWs)   bands (ev):

   -45.7280 -44.4543 -44.1455 -43.9379 -43.8594 -43.8338 -43.8003  -3.9022
    -3.5858  -3.4581  -3.3879  -3.3662  -3.3158  -3.2735  -3.2399  -3.2159
    -3.0967  -2.9801  -2.9498  -2.9176  -2.9029  -2.8569  -2.6819  -2.6633
    -2.6228  -2.5853  -2.4741  -2.4376  -2.3835  -2.2984  -2.2392  -2.1939
    -2.1592  -2.1352  -2.1162  -2.0946  -2.0748  -2.0625  -1.9883  -1.7610
    -1.0732   0.0637   1.1187   1.8032   2.4395   2.6668   2.9932   3.6329
     4.6553   5.1488   5.5567   5.6011   5.9175

          k = 0.2500-0.0000 0.0000 ( 19968 PWs)   bands (ev):

   -45.7265 -44.4527 -44.1438 -43.9361 -43.8576 -43.8320 -43.7985  -3.7114
    -3.5039  -3.4035  -3.3261  -3.2838  -3.2151  -3.0730  -3.0658  -3.0382
    -2.9703  -2.9586  -2.9337  -2.9167  -2.8632  -2.8174  -2.7626  -2.6924
    -2.5638  -2.4927  -2.4419  -2.4012  -2.3896  -2.3704  -2.3643  -2.3226
    -2.2937  -2.2924  -2.2461  -2.0957  -2.0237  -1.9133  -1.6565  -1.6135
    -0.6395   0.5838   1.7281   2.8816   3.6588   3.8326   4.4675   5.1389
     5.3310   5.4345   5.5605   5.8268   6.0659

          k = 0.2500 0.0884 0.0000 ( 19915 PWs)   bands (ev):

   -45.7264 -44.4526 -44.1437 -43.9360 -43.8575 -43.8319 -43.7984  -3.6248
    -3.4453  -3.4220  -3.2593  -3.2265  -3.2076  -3.0839  -3.0721  -3.0239
    -2.9813  -2.9467  -2.9246  -2.8672  -2.8346  -2.8221  -2.7720  -2.6808
    -2.5582  -2.4993  -2.4743  -2.4118  -2.3935  -2.3446  -2.3377  -2.3142
    -2.2937  -2.2671  -2.2343  -2.1131  -2.0571  -1.9867  -1.7408  -1.5295
    -0.4938   0.7105   1.8100   2.6165   3.3311   3.5640   3.8555   4.3342
     5.0119   5.1800   5.3437   5.6078   6.1076

          k = 0.2500 0.1768 0.0000 ( 19923 PWs)   bands (ev):

   -45.7264 -44.4525 -44.1437 -43.9359 -43.8574 -43.8319 -43.7985  -3.4404
    -3.3799  -3.2831  -3.1865  -3.1639  -3.1218  -3.1009  -3.0446  -3.0219
    -2.9978  -2.9078  -2.8982  -2.8350  -2.8129  -2.7563  -2.7498  -2.6559
    -2.5840  -2.5249  -2.4683  -2.4296  -2.4060  -2.3404  -2.2985  -2.2762
    -2.2675  -2.2407  -2.2100  -2.1786  -2.1503  -1.9900  -1.9257  -1.1920
    -0.1097   0.9733   1.2349   1.9582   2.6389   2.9002   3.5828   3.7515
     4.3136   4.5566   5.1759   5.5834   6.2272

          k = 0.2500 0.2652 0.0000 ( 19896 PWs)   bands (ev):

   -45.7263 -44.4524 -44.1436 -43.9358 -43.8572 -43.8318 -43.7985  -3.3153
    -3.2994  -3.1390  -3.1284  -3.1204  -3.0919  -3.0731  -3.0205  -3.0048
    -2.9103  -2.8945  -2.8608  -2.8296  -2.7624  -2.7184  -2.6457  -2.6247
    -2.6014  -2.5504  -2.4716  -2.4651  -2.4367  -2.4088  -2.3595  -2.3263
    -2.3097  -2.2752  -2.2446  -2.2368  -2.2055  -1.8088  -1.4068  -0.6055
    -0.0106   0.4024   0.4949   1.6063   2.0060   2.5366   3.0150   3.5217
     4.1535   4.6064   5.0050   5.5586   6.6029

          k = 0.2500-0.3536 0.0000 ( 19900 PWs)   bands (ev):

   -45.7263 -44.4524 -44.1436 -43.9358 -43.8572 -43.8317 -43.7986  -3.2752
    -3.2532  -3.1359  -3.1279  -3.1025  -3.0741  -3.0438  -3.0331  -2.9436
    -2.9347  -2.8382  -2.8168  -2.7571  -2.7126  -2.6483  -2.6319  -2.6293
    -2.5978  -2.5859  -2.5446  -2.5254  -2.4509  -2.4437  -2.4156  -2.3947
    -2.3494  -2.3105  -2.2537  -2.2311  -2.2121  -1.0980  -1.0583  -0.5940
    -0.5233   0.1788   0.2529   1.5034   1.6819   2.5499   2.7390   3.4863
     3.9725   4.6508   5.1753   5.7615   6.2863

          k = 0.2500-0.2652 0.0000 ( 19896 PWs)   bands (ev):

   -45.7263 -44.4524 -44.1436 -43.9358 -43.8572 -43.8318 -43.7985  -3.3153
    -3.2994  -3.1390  -3.1284  -3.1204  -3.0919  -3.0731  -3.0205  -3.0048
    -2.9103  -2.8945  -2.8608  -2.8296  -2.7624  -2.7184  -2.6457  -2.6247
    -2.6014  -2.5504  -2.4716  -2.4651  -2.4367  -2.4088  -2.3595  -2.3263
    -2.3097  -2.2752  -2.2446  -2.2368  -2.2055  -1.8088  -1.4068  -0.6055
    -0.0106   0.4024   0.4949   1.6063   2.0060   2.5366   3.0150   3.5217
     4.1535   4.6064   5.0050   5.5586   6.6029

          k = 0.2500-0.1768 0.0000 ( 19923 PWs)   bands (ev):

   -45.7264 -44.4525 -44.1437 -43.9359 -43.8574 -43.8319 -43.7985  -3.4404
    -3.3799  -3.2831  -3.1865  -3.1639  -3.1218  -3.1009  -3.0446  -3.0219
    -2.9978  -2.9078  -2.8982  -2.8350  -2.8129  -2.7563  -2.7498  -2.6559
    -2.5840  -2.5249  -2.4683  -2.4296  -2.4060  -2.3404  -2.2985  -2.2762
    -2.2675  -2.2407  -2.2100  -2.1786  -2.1503  -1.9900  -1.9257  -1.1920
    -0.1097   0.9733   1.2349   1.9582   2.6389   2.9002   3.5828   3.7515
     4.3136   4.5566   5.1759   5.5834   6.2272

          k = 0.2500-0.0884 0.0000 ( 19915 PWs)   bands (ev):

   -45.7264 -44.4526 -44.1437 -43.9360 -43.8575 -43.8319 -43.7984  -3.6248
    -3.4453  -3.4220  -3.2593  -3.2265  -3.2076  -3.0839  -3.0721  -3.0239
    -2.9813  -2.9467  -2.9246  -2.8672  -2.8346  -2.8221  -2.7720  -2.6808
    -2.5582  -2.4993  -2.4743  -2.4118  -2.3935  -2.3446  -2.3377  -2.3142
    -2.2937  -2.2671  -2.2343  -2.1131  -2.0571  -1.9867  -1.7408  -1.5295
    -0.4938   0.7105   1.8100   2.6165   3.3311   3.5640   3.8555   4.3342
     5.0119   5.1800   5.3437   5.6078   6.1075

          k = 0.3750-0.0000 0.0000 ( 19934 PWs)   bands (ev):

   -45.7247 -44.4507 -44.1419 -43.9341 -43.8556 -43.8300 -43.7964  -3.5833
    -3.4911  -3.3944  -3.3929  -3.3347  -3.2736  -3.2649  -3.2580  -3.2129
    -3.1425  -3.0892  -3.0675  -2.9311  -2.8509  -2.8127  -2.7836  -2.7588
    -2.6195  -2.6086  -2.5258  -2.5153  -2.3159  -2.2782  -2.1366  -2.0572
    -2.0003  -1.8818  -1.8483  -1.7777  -1.6000  -1.3026  -0.9840  -0.4084
     0.5291   1.6833   2.6669   2.7682   3.1439   3.6094   4.0877   4.5719
     5.0403   5.3646   5.3996   5.9856   6.2100

          k = 0.3750 0.0884 0.0000 ( 19943 PWs)   bands (ev):

   -45.7247 -44.4508 -44.1419 -43.9341 -43.8556 -43.8300 -43.7965  -3.5069
    -3.4318  -3.4017  -3.3895  -3.3383  -3.2866  -3.2471  -3.2159  -3.1554
    -3.1291  -3.1058  -3.0527  -2.8866  -2.8546  -2.7964  -2.7425  -2.7160
    -2.6422  -2.5584  -2.5225  -2.4948  -2.4066  -2.2075  -2.1635  -2.1140
    -2.0355  -1.8801  -1.8593  -1.7722  -1.6642  -1.2358  -0.9338  -0.3481
     0.6144   1.7720   2.7405   2.8417   3.1628   3.5522   3.8635   4.2176
     4.4263   4.5909   5.1788   5.3790   6.6467

          k = 0.3750 0.1768 0.0000 ( 19944 PWs)   bands (ev):

   -45.7247 -44.4507 -44.1419 -43.9340 -43.8555 -43.8300 -43.7966  -3.4116
    -3.4083  -3.3418  -3.3016  -3.2834  -3.2646  -3.2473  -3.1167  -3.0965
    -3.0819  -3.0641  -3.0186  -2.8377  -2.8026  -2.7441  -2.7025  -2.6294
    -2.5891  -2.5369  -2.4819  -2.4564  -2.4211  -2.2799  -2.2081  -2.1773
    -2.1243  -1.9536  -1.8613  -1.7956  -1.7479  -1.0236  -0.7457  -0.1331
     0.8701   1.9704   2.3899   2.8543   3.0446   3.1449   3.2126   3.3999
     3.5102   4.3749   5.0548   5.6542   6.3713

          k = 0.3750 0.2652 0.0000 ( 19919 PWs)   bands (ev):

   -45.7246 -44.4507 -44.1418 -43.9340 -43.8554 -43.8299 -43.7966  -3.4226
    -3.4168  -3.3001  -3.2876  -3.2126  -3.1935  -3.1290  -3.0726  -3.0537
    -3.0009  -2.9798  -2.8544  -2.8151  -2.7523  -2.6821  -2.6471  -2.5800
    -2.5561  -2.5163  -2.4354  -2.4222  -2.3937  -2.3817  -2.3350  -2.2398
    -2.1800  -1.9441  -1.9213  -1.8231  -1.8018  -0.6124  -0.3196   0.3155
     1.1196   1.2573   1.4578   2.2046   2.5922   2.8057   3.2049   3.4043
     3.4964   4.2677   4.9697   6.0212   6.0495

          k = 0.3750-0.3536 0.0000 ( 19954 PWs)   bands (ev):

   -45.7247 -44.4508 -44.1419 -43.9340 -43.8554 -43.8300 -43.7968  -3.4262
    -3.4218  -3.3015  -3.2934  -3.1622  -3.1466  -3.1203  -3.1013  -2.9990
    -2.9877  -2.8082  -2.8064  -2.7726  -2.7220  -2.6734  -2.6155  -2.5877
    -2.5366  -2.5260  -2.5008  -2.4670  -2.4253  -2.3921  -2.3827  -2.1869
    -2.1506  -1.9586  -1.9217  -1.8482  -1.8376   0.0731   0.1032   0.4011
     0.4604   0.9809   1.0612   2.0190   2.1756   2.8823   3.0716   3.5468
     3.8153   4.0331   4.8652   5.8963   5.9208

          k = 0.3750-0.2652 0.0000 ( 19919 PWs)   bands (ev):

   -45.7246 -44.4507 -44.1418 -43.9340 -43.8554 -43.8299 -43.7966  -3.4226
    -3.4168  -3.3001  -3.2876  -3.2126  -3.1935  -3.1290  -3.0726  -3.0537
    -3.0009  -2.9798  -2.8544  -2.8151  -2.7523  -2.6821  -2.6471  -2.5800
    -2.5561  -2.5163  -2.4354  -2.4222  -2.3937  -2.3817  -2.3350  -2.2398
    -2.1800  -1.9441  -1.9213  -1.8231  -1.8018  -0.6124  -0.3196   0.3155
     1.1196   1.2573   1.4578   2.2046   2.5922   2.8057   3.2049   3.4043
     3.4964   4.2677   4.9697   6.0206   6.0489

          k = 0.3750-0.1768 0.0000 ( 19944 PWs)   bands (ev):

   -45.7247 -44.4507 -44.1419 -43.9340 -43.8555 -43.8300 -43.7966  -3.4116
    -3.4083  -3.3418  -3.3016  -3.2834  -3.2646  -3.2473  -3.1167  -3.0965
    -3.0819  -3.0641  -3.0186  -2.8377  -2.8026  -2.7441  -2.7025  -2.6294
    -2.5891  -2.5369  -2.4819  -2.4564  -2.4211  -2.2799  -2.2081  -2.1773
    -2.1243  -1.9536  -1.8613  -1.7956  -1.7479  -1.0236  -0.7457  -0.1331
     0.8701   1.9704   2.3899   2.8543   3.0446   3.1449   3.2126   3.3999
     3.5102   4.3749   5.0548   5.6542   6.3714

          k = 0.3750-0.0884 0.0000 ( 19943 PWs)   bands (ev):

   -45.7247 -44.4508 -44.1419 -43.9341 -43.8556 -43.8300 -43.7965  -3.5069
    -3.4318  -3.4017  -3.3895  -3.3383  -3.2866  -3.2471  -3.2159  -3.1554
    -3.1291  -3.1058  -3.0527  -2.8866  -2.8546  -2.7964  -2.7425  -2.7160
    -2.6422  -2.5584  -2.5225  -2.4948  -2.4066  -2.2075  -2.1635  -2.1140
    -2.0355  -1.8801  -1.8593  -1.7722  -1.6642  -1.2358  -0.9338  -0.3481
     0.6144   1.7720   2.7405   2.8417   3.1628   3.5522   3.8635   4.2176
     4.4264   4.5910   5.1788   5.3790   6.6466

          k =-0.5000 0.0000 0.0000 ( 19974 PWs)   bands (ev):

   -45.7241 -44.4500 -44.1412 -43.9333 -43.8548 -43.8292 -43.7956  -3.5455
    -3.5141  -3.5096  -3.4827  -3.3745  -3.3607  -3.3046  -3.2617  -3.1679
    -3.1661  -3.1521  -3.1017  -2.9281  -2.9179  -2.9097  -2.7688  -2.7471
    -2.7128  -2.6867  -2.6046  -2.5942  -2.3025  -2.2273  -2.1088  -1.9878
    -1.9240  -1.8628  -1.6350  -1.5912  -1.5224   0.3541   0.5797   0.7150
     1.0581   1.1581   1.8344   1.8849   2.5986   3.1754   3.4344   4.6142
     4.7109   5.5592   5.8232   6.2984   6.6286

          k =-0.5000 0.0884 0.0000 ( 19948 PWs)   bands (ev):

   -45.7241 -44.4500 -44.1411 -43.9333 -43.8548 -43.8292 -43.7957  -3.5203
    -3.5096  -3.4718  -3.4160  -3.3904  -3.3520  -3.3046  -3.2050  -3.1920
    -3.1340  -3.1135  -3.0811  -2.9506  -2.8787  -2.8672  -2.7287  -2.7260
    -2.6912  -2.6441  -2.5997  -2.5686  -2.3923  -2.1514  -2.1271  -2.0631
    -2.0166  -1.7667  -1.7307  -1.5571  -1.5305   0.3892   0.6135   0.8316
     1.1004   1.2274   1.8492   1.9496   2.5832   3.2552   3.3540   4.4030
     4.7702   5.3573   5.3840   5.7615   6.1444

          k =-0.5000 0.1768 0.0000 ( 19956 PWs)   bands (ev):

   -45.7240 -44.4500 -44.1411 -43.9333 -43.8547 -43.8292 -43.7958  -3.5253
    -3.5197  -3.4004  -3.3673  -3.3078  -3.2467  -3.2390  -3.1815  -3.1638
    -3.0702  -3.0309  -2.9923  -2.9236  -2.8921  -2.7254  -2.6801  -2.6691
    -2.6209  -2.5916  -2.5510  -2.5251  -2.4105  -2.2339  -2.1901  -2.1477
    -2.0715  -1.8716  -1.6571  -1.5843  -1.5334   0.5209   0.7424   1.1682
     1.2463   1.4378   1.8961   2.1226   2.5238   3.1448   3.3126   3.7604
     3.8732   4.5110   4.5476   5.1552   5.6373

          k =-0.5000 0.2652 0.0000 ( 19924 PWs)   bands (ev):

   -45.7239 -44.4500 -44.1411 -43.9332 -43.8546 -43.8291 -43.7959  -3.5330
    -3.5268  -3.4020  -3.3869  -3.2101  -3.1707  -3.1494  -3.1488  -3.0246
    -2.9688  -2.9449  -2.9273  -2.8432  -2.8063  -2.6597  -2.6567  -2.6014
    -2.5916  -2.5579  -2.5008  -2.4876  -2.3805  -2.3635  -2.3164  -2.1978
    -2.0872  -1.7598  -1.7373  -1.5847  -1.5537   0.8281   1.0515   1.5448
     1.6859   1.7913   1.9890   2.2485   2.3895   2.3979   2.6432   2.8249
     3.1938   3.8086   4.0486   4.6525   5.3289

          k =-0.5000-0.3536 0.0000 ( 19904 PWs)   bands (ev):

   -45.7239 -44.4499 -44.1410 -43.9331 -43.8545 -43.8291 -43.7959  -3.5348
    -3.5314  -3.4022  -3.3935  -3.1977  -3.1813  -3.1142  -3.1018  -2.9435
    -2.9283  -2.9039  -2.8635  -2.7802  -2.7175  -2.6741  -2.6394  -2.6002
    -2.5794  -2.5377  -2.5067  -2.4943  -2.4621  -2.4467  -2.3644  -2.0832
    -2.0381  -1.7821  -1.7451  -1.5829  -1.5705   1.4136   1.4327   1.6402
     1.6629   1.9353   2.0451   2.1164   2.1286   2.2296   2.3637   2.4212
     2.5820   3.6042   3.8760   4.4872   5.3627

     the Fermi energy is     1.9305 ev

!    total energy              =    -609.94212003 Ry
     estimated scf accuracy    <       0.00000029 Ry
     smearing contrib. (-TS)   =      -0.00160020 Ry
     internal energy E=F+TS    =    -609.94051983 Ry

     The total energy is F=E-TS. E is the sum of the following terms:
     one-electron contribution =   -6073.55635836 Ry
     hartree contribution      =    3077.15454613 Ry
     xc contribution           =    -159.35839484 Ry
     ewald contribution        =    2546.05186298 Ry
     DFT-D3 Dispersion         =      -0.23217574 Ry

     convergence has been achieved in  14 iterations

     negative rho (up, down):  1.452E-05 0.000E+00

     Forces acting on atoms (cartesian axes, Ry/au):

     atom    1 type  1   force =     0.00000013   -0.00065159    0.01479777
     atom    2 type  1   force =    -0.00000034    0.00070172    0.00286062
     atom    3 type  1   force =     0.00000065    0.00037344   -0.00364048
     atom    4 type  1   force =     0.00000049    0.00025203    0.00102552
     atom    5 type  1   force =    -0.00000103    0.00002394    0.00398069
     atom    6 type  1   force =     0.00000064    0.00004047    0.00920782
     atom    7 type  2   force =    -0.00000003    0.00856924   -0.02148304
     atom    8 type  2   force =    -0.00000033    0.00006308   -0.00217326
     atom    9 type  2   force =    -0.00000036   -0.00011178   -0.00089828
     atom   10 type  2   force =    -0.00000044   -0.00014431   -0.00097238
     atom   11 type  2   force =     0.00000019   -0.00004096   -0.00363681
     atom   12 type  2   force =     0.00000006   -0.00002126   -0.00650039
     atom   13 type  2   force =     0.00000037   -0.00905404    0.00743221
     The non-local contrib.  to forces
     atom    1 type  1   force =     0.00000007   -0.01782182    0.02353743
     atom    2 type  1   force =    -0.00000131   -0.00525508   -0.01114514
     atom    3 type  1   force =    -0.00000019   -0.00105666    0.00355866
     atom    4 type  1   force =    -0.00000096   -0.00001978    0.00368979
     atom    5 type  1   force =    -0.00000020    0.00058146   -0.00277847
     atom    6 type  1   force =     0.00000163   -0.00015049   -0.05345286
     atom    7 type  2   force =    -0.00000408    0.00702517    0.01347253
     atom    8 type  2   force =    -0.00000563    0.00074396   -0.00110758
     atom    9 type  2   force =    -0.00000405    0.00016390   -0.00175297
     atom   10 type  2   force =    -0.00000402   -0.00002264   -0.00166266
     atom   11 type  2   force =    -0.00000434   -0.00011134   -0.00599141
     atom   12 type  2   force =    -0.00000495    0.00002836   -0.03806294
     atom   13 type  2   force =     0.00001288    0.00175537    0.05319121
     The ionic contribution  to forces
     atom    1 type  1   force =     0.00000175   -0.54932773  103.95949781
     atom    2 type  1   force =     0.00000155    0.03018794   62.39946584
     atom    3 type  1   force =     0.00000085   -0.00128851   17.23762129
     atom    4 type  1   force =     0.00000005    0.00005562  -26.53117446
     atom    5 type  1   force =     0.00000000   -0.00000240  -70.47928842
     atom    6 type  1   force =     0.00000000    0.00000010 -112.42074241
     atom    7 type  2   force =    -0.00000141    0.20594697   30.11170720
     atom    8 type  2   force =    -0.00000121   -0.00723919   16.48892244
     atom    9 type  2   force =    -0.00000170    0.00035055    4.75147315
     atom   10 type  2   force =    -0.00000001   -0.00001516   -7.24058975
     atom   11 type  2   force =    -0.00000000    0.00000066  -19.17421482
     atom   12 type  2   force =    -0.00000000   -0.00000003  -31.36698938
     atom   13 type  2   force =     0.00000012    0.32133117   32.26431151
     The local contribution  to forces
     atom    1 type  1   force =    -0.00000308    0.56502462 -103.96119420
     atom    2 type  1   force =    -0.00000097   -0.02420520  -62.38366172
     atom    3 type  1   force =    -0.00000266    0.00273222  -17.24617586
     atom    4 type  1   force =     0.00000044    0.00022314   26.52738174
     atom    5 type  1   force =     0.00000006   -0.00056192   70.48249998
     atom    6 type  1   force =    -0.00000223    0.00019212  112.47548147
     atom    7 type  2   force =     0.00000565   -0.20460828  -30.14513894
     atom    8 type  2   force =     0.00000690    0.00656487  -16.48879024
     atom    9 type  2   force =     0.00000564   -0.00062590   -4.75069998
     atom   10 type  2   force =     0.00000377   -0.00010631    7.24090883
     atom   11 type  2   force =     0.00000436    0.00007313   19.17487301
     atom   12 type  2   force =     0.00000521   -0.00004796   31.39659673
     atom   13 type  2   force =    -0.00001232   -0.33175156  -32.30794684
     The core correction contribution to forces
     atom    1 type  1   force =    -0.00000007    0.00119959   -0.00367897
     atom    2 type  1   force =    -0.00000004    0.00000513   -0.00078192
     atom    3 type  1   force =    -0.00000009   -0.00000103    0.00064520
     atom    4 type  1   force =    -0.00000005    0.00000240   -0.00004458
     atom    5 type  1   force =     0.00000004    0.00000452   -0.00020850
     atom    6 type  1   force =    -0.00000009   -0.00000176    0.00450615
     atom    7 type  2   force =     0.00000000    0.00000000    0.00000000
     atom    8 type  2   force =     0.00000000    0.00000000    0.00000000
     atom    9 type  2   force =     0.00000000    0.00000000    0.00000000
     atom   10 type  2   force =     0.00000000    0.00000000    0.00000000
     atom   11 type  2   force =     0.00000000    0.00000000    0.00000000
     atom   12 type  2   force =     0.00000000    0.00000000    0.00000000
     atom   13 type  2   force =     0.00000000    0.00000000    0.00000000
     The Hubbard contrib.    to forces
     atom    1 type  1   force =     0.00000000    0.00000000    0.00000000
     atom    2 type  1   force =     0.00000000    0.00000000    0.00000000
     atom    3 type  1   force =     0.00000000    0.00000000    0.00000000
     atom    4 type  1   force =     0.00000000    0.00000000    0.00000000
     atom    5 type  1   force =     0.00000000    0.00000000    0.00000000
     atom    6 type  1   force =     0.00000000    0.00000000    0.00000000
     atom    7 type  2   force =     0.00000000    0.00000000    0.00000000
     atom    8 type  2   force =     0.00000000    0.00000000    0.00000000
     atom    9 type  2   force =     0.00000000    0.00000000    0.00000000
     atom   10 type  2   force =     0.00000000    0.00000000    0.00000000
     atom   11 type  2   force =     0.00000000    0.00000000    0.00000000
     atom   12 type  2   force =     0.00000000    0.00000000    0.00000000
     atom   13 type  2   force =     0.00000000    0.00000000    0.00000000
     The SCF correction term to forces
     atom    1 type  1   force =     0.00000166    0.00009321    0.00127427
     atom    2 type  1   force =     0.00000064   -0.00001848    0.00121725
     atom    3 type  1   force =     0.00000291   -0.00001272    0.00075945
     atom    4 type  1   force =     0.00000119   -0.00000787    0.00066581
     atom    5 type  1   force =    -0.00000074    0.00000374    0.00018535
     atom    6 type  1   force =     0.00000152    0.00000194   -0.00024939
     atom    7 type  2   force =    -0.00000000    0.00000783    0.00010773
     atom    8 type  2   force =    -0.00000020    0.00000260    0.00030905
     atom    9 type  2   force =    -0.00000007    0.00000202    0.00024781
     atom   10 type  2   force =     0.00000001    0.00000125    0.00012501
     atom   11 type  2   force =     0.00000037   -0.00000195    0.00001866
     atom   12 type  2   force =    -0.00000001   -0.00000017   -0.00016652
     atom   13 type  2   force =    -0.00000011   -0.00002468    0.00034020

     DFT-D3 dispersion contribution to forces:
     atom    1 type  1   force =     0.00000000    0.00018200   -0.00456921
     atom    2 type  1   force =    -0.00000001   -0.00001112   -0.00216434
     atom    3 type  1   force =     0.00000001    0.00000160    0.00002014
     atom    4 type  1   force =     0.00000000   -0.00000003    0.00057659
     atom    5 type  1   force =    -0.00000000    0.00000000    0.00364011
     atom    6 type  1   force =    -0.00000000   -0.00000000    0.00373421
     atom    7 type  2   force =     0.00000000    0.00019901   -0.00156221
     atom    8 type  2   force =     0.00000000   -0.00000770   -0.00143758
     atom    9 type  2   force =     0.00000000   -0.00000089   -0.00009694
     atom   10 type  2   force =    -0.00000000    0.00000002    0.00031555
     atom   11 type  2   force =     0.00000000   -0.00000000    0.00174710
     atom   12 type  2   force =    -0.00000000    0.00000000    0.00219108
     atom   13 type  2   force =    -0.00000000   -0.00036289   -0.00239451

     Total force =     0.032823     Total SCF correction =     0.002135


     Computing stress (Cartesian axis) and pressure


     negative rho (up, down):  1.452E-05 0.000E+00
          total   stress  (Ry/bohr**3)                   (kbar)     P=      -12.27
  -0.00007375  -0.00000000  -0.00000000          -10.85       -0.00       -0.00
  -0.00000000  -0.00011317  -0.00001428           -0.00      -16.65       -2.10
  -0.00000000  -0.00001428  -0.00006326           -0.00       -2.10       -9.31


     BFGS Geometry Optimization
     Energy error            =      0.0E+00 Ry
     Gradient error          =      2.1E-02 Ry/Bohr

     number of scf cycles    =   1
     number of bfgs steps    =   0

     energy             new  =    -609.9421200273 Ry

     new trust radius        =       0.0231290492 bohr
     new conv_thr            =       0.0000010000 Ry


ATOMIC_POSITIONS (angstrom)
Ag            0.7806834158        1.1037129398       20.8523103223
Ag            0.7806821417        3.3125375303       18.8325890870
Ag            0.7806854247        1.1042530489       16.6224061282
Ag            0.7806853405        3.3122996633       14.4167644091
Ag            0.7806845371        1.1040681009       12.2102173549
Ag            0.7806854209        3.3121877082       10.0048725689
Li            2.3420540395        3.3167041515       21.1738735562
Li            2.3420537366        1.1040870526       18.7593186921
Li            2.3420550567        3.3121071455       16.6238572421
Li            2.3420550132        1.1039790665       14.4157071665
Li            2.3420553458        3.3121446208       12.2061863463
Li            2.3420552817        1.1040441819        9.9965601415
Li            0.7806839058        2.5713410614       23.1891748479



     Writing config-only to output data dir ./LiAg_mp-2426_110_hollow_1/LiAg_mp-2426_110_hollow_1.save/
     NEW-OLD atomic charge density approx. for the potential

     negative rho (up, down):  1.484E-05 0.000E+00

     total cpu time spent up to now is       23.2 secs

     per-process dynamical memory:   186.8 Mb

     Self-consistent Calculation

     iteration #  1     ecut=    55.00 Ry     beta= 0.30
     Davidson diagonalization with overlap
     ethr =  1.00E-06,  avg # of iterations =  4.1

     negative rho (up, down):  1.469E-05 0.000E+00

     total cpu time spent up to now is       24.2 secs

     total energy              =    -609.94301298 Ry
     estimated scf accuracy    <       0.00029106 Ry

     iteration #  2     ecut=    55.00 Ry     beta= 0.30
     Davidson diagonalization with overlap
     ethr =  3.35E-07,  avg # of iterations =  7.1

     negative rho (up, down):  1.557E-05 0.000E+00

     total cpu time spent up to now is       25.0 secs

     total energy              =    -609.94207582 Ry
     estimated scf accuracy    <       0.05547524 Ry

     iteration #  3     ecut=    55.00 Ry     beta= 0.30
     Davidson diagonalization with overlap
     ethr =  3.35E-07,  avg # of iterations =  5.8

     negative rho (up, down):  1.583E-05 0.000E+00

     total cpu time spent up to now is       25.8 secs

     total energy              =    -609.94315344 Ry
     estimated scf accuracy    <       0.00000776 Ry

     iteration #  4     ecut=    55.00 Ry     beta= 0.30
     Davidson diagonalization with overlap
     ethr =  8.92E-09,  avg # of iterations =  4.4

     negative rho (up, down):  1.569E-05 0.000E+00

     total cpu time spent up to now is       26.6 secs

     total energy              =    -609.94315416 Ry
     estimated scf accuracy    <       0.00001697 Ry

     iteration #  5     ecut=    55.00 Ry     beta= 0.30
     Davidson diagonalization with overlap
     ethr =  8.92E-09,  avg # of iterations =  1.6

     negative rho (up, down):  1.502E-05 0.000E+00

     total cpu time spent up to now is       27.1 secs

     total energy              =    -609.94315491 Ry
     estimated scf accuracy    <       0.00000848 Ry

     iteration #  6     ecut=    55.00 Ry     beta= 0.30
     Davidson diagonalization with overlap
     ethr =  8.92E-09,  avg # of iterations =  1.2

     negative rho (up, down):  1.454E-05 0.000E+00

     total cpu time spent up to now is       27.6 secs

     End of self-consistent calculation

          k = 0.0000 0.0000 0.0000 ( 19753 PWs)   bands (ev):

   -45.7284 -44.4552 -44.1338 -43.9346 -43.8550 -43.8310 -43.7984  -4.1992
    -3.8076  -3.5253  -3.5110  -3.4913  -3.4529  -3.3691  -3.3064  -3.2976
    -3.2783  -3.1399  -3.0978  -3.0028  -2.9616  -2.9187  -2.4982  -2.4560
    -2.4494  -2.3821  -2.3764  -2.2861  -2.2852  -2.2700  -2.1764  -2.1698
    -2.1472  -2.0503  -2.0494  -2.0240  -2.0060  -1.9977  -1.9792  -1.6642
    -1.5010  -0.3534   0.7303   1.7926   2.2221   2.4775   2.9874   4.0515
     4.7268   5.1139   5.2675   5.3562   5.8307

          k = 0.0000 0.0884 0.0000 ( 19735 PWs)   bands (ev):

   -45.7284 -44.4551 -44.1337 -43.9345 -43.8549 -43.8309 -43.7983  -4.1078
    -3.7880  -3.5065  -3.4826  -3.4611  -3.4519  -3.3261  -3.3013  -3.2931
    -3.2485  -3.1521  -3.1181  -2.9908  -2.9106  -2.8594  -2.5475  -2.4804
    -2.4688  -2.4077  -2.3715  -2.3013  -2.2634  -2.2224  -2.1921  -2.1709
    -2.1607  -2.1359  -2.0752  -2.0526  -2.0080  -1.9927  -1.9720  -1.7973
    -1.2707  -0.1691   0.8625   1.4777   2.0886   2.3108   2.6881   3.3405
     4.4270   4.9339   5.3535   5.3677   5.7229

          k = 0.0000 0.1768 0.0000 ( 19834 PWs)   bands (ev):

   -45.7285 -44.4552 -44.1338 -43.9346 -43.8549 -43.8309 -43.7985  -3.8785
    -3.7274  -3.5214  -3.4356  -3.4116  -3.3450  -3.3007  -3.2739  -3.2540
    -3.1832  -3.1702  -3.1014  -2.8919  -2.8626  -2.7639  -2.5263  -2.5243
    -2.5153  -2.4339  -2.4087  -2.3633  -2.2961  -2.2862  -2.2858  -2.2526
    -2.1566  -2.1546  -2.1372  -2.0370  -1.9910  -1.9732  -1.9575  -1.7550
    -0.7883   0.2030   0.2624   1.0740   1.6252   2.0419   2.5903   3.0100
     3.2695   4.1885   5.2452   5.3326   5.7622

          k = 0.0000 0.2652 0.0000 ( 19874 PWs)   bands (ev):

   -45.7286 -44.4552 -44.1338 -43.9346 -43.8548 -43.8309 -43.7987  -3.6627
    -3.6463  -3.5244  -3.4054  -3.3737  -3.3486  -3.2726  -3.2405  -3.2091
    -3.1816  -3.0719  -2.9135  -2.8509  -2.8064  -2.6835  -2.5666  -2.5526
    -2.5367  -2.4952  -2.4591  -2.4410  -2.4286  -2.3214  -2.2891  -2.2878
    -2.1684  -2.1104  -2.0301  -2.0053  -1.9713  -1.9581  -1.9436  -1.1891
    -0.8836  -0.2285  -0.1201   0.8868   1.1637   1.9259   2.2287   2.9213
     3.3523   3.7736   4.2154   5.3639   5.8787

          k = 0.0000-0.3536 0.0000 ( 19864 PWs)   bands (ev):

   -45.7286 -44.4552 -44.1337 -43.9345 -43.8547 -43.8309 -43.7987  -3.5971
    -3.5921  -3.4956  -3.4556  -3.3415  -3.3384  -3.2824  -3.2760  -3.1868
    -3.1703  -2.9201  -2.8911  -2.8010  -2.7357  -2.6970  -2.6409  -2.5818
    -2.5723  -2.5670  -2.4921  -2.4700  -2.4523  -2.3190  -2.3107  -2.1489
    -2.1202  -2.0219  -1.9695  -1.9485  -1.9383  -1.8880  -1.8376  -1.2394
    -1.1673  -0.3483  -0.2732   0.8656   0.9296   1.9598   2.0381   2.8541
     3.2563   3.9402   4.3898   4.7340   5.2732

          k = 0.1250-0.0000 0.0000 ( 19806 PWs)   bands (ev):

   -45.7278 -44.4545 -44.1331 -43.9339 -43.8543 -43.8302 -43.7976  -3.9967
    -3.5664  -3.5091  -3.4645  -3.3826  -3.3032  -3.2849  -3.2694  -3.2305
    -3.0859  -2.9983  -2.9482  -2.9342  -2.9109  -2.8890  -2.6582  -2.6440
    -2.6234  -2.5504  -2.4451  -2.4141  -2.3886  -2.2796  -2.2564  -2.1762
    -2.1597  -2.1566  -2.1077  -2.0960  -2.0801  -2.0232  -1.9572  -1.6450
    -1.2724  -0.0993   1.0090   2.1053   2.6529   2.7998   3.3934   4.4222
     4.9248   5.3257   5.5083   5.6485   6.0433

          k = 0.1250 0.0884 0.0000 ( 19853 PWs)   bands (ev):

   -45.7279 -44.4546 -44.1331 -43.9339 -43.8543 -43.8303 -43.7977  -3.8991
    -3.5827  -3.4546  -3.3841  -3.3636  -3.3130  -3.2695  -3.2373  -3.2128
    -3.0936  -2.9782  -2.9485  -2.9156  -2.9003  -2.8557  -2.6786  -2.6610
    -2.6196  -2.5827  -2.4714  -2.4345  -2.3812  -2.2957  -2.2359  -2.1914
    -2.1570  -2.1328  -2.1144  -2.0938  -2.0745  -2.0616  -1.9874  -1.7592
    -1.0715   0.0648   1.1221   1.8052   2.4418   2.6683   2.9902   3.6345
     4.6595   5.1526   5.5601   5.6010   5.9211

          k = 0.1250 0.1768 0.0000 ( 19851 PWs)   bands (ev):

   -45.7278 -44.4545 -44.1330 -43.9338 -43.8541 -43.8302 -43.7977  -3.6585
    -3.5441  -3.3557  -3.3056  -3.2944  -3.2851  -3.2343  -3.1868  -3.1155
    -3.0915  -2.9829  -2.9713  -2.8773  -2.8530  -2.7714  -2.7135  -2.6892
    -2.6238  -2.6163  -2.4850  -2.4452  -2.3810  -2.3217  -2.2735  -2.2482
    -2.2163  -2.1790  -2.1321  -2.1124  -2.0656  -2.0596  -2.0425  -1.6171
    -0.6140   0.4057   0.5228   1.3210   1.9274   2.2971   2.8758   3.2732
     3.5030   4.3602   5.4070   5.5561   5.9977

          k = 0.1250 0.2652 0.0000 ( 19897 PWs)   bands (ev):

   -45.7279 -44.4545 -44.1330 -43.9338 -43.8541 -43.8301 -43.7979  -3.4743
    -3.4643  -3.3168  -3.2539  -3.2273  -3.2074  -3.1663  -3.1457  -3.0653
    -3.0346  -3.0202  -2.9014  -2.8429  -2.8034  -2.7488  -2.7341  -2.6623
    -2.6602  -2.6274  -2.5157  -2.4846  -2.4342  -2.4026  -2.3591  -2.3012
    -2.2124  -2.1714  -2.1258  -2.0604  -2.0440  -2.0362  -1.8383  -1.0376
    -0.6495  -0.0553   0.0244   1.0978   1.4140   2.1076   2.4599   3.1157
     3.5800   4.0611   4.4150   5.5544   6.1130

          k = 0.1250-0.3536 0.0000 ( 19884 PWs)   bands (ev):

   -45.7279 -44.4544 -44.1330 -43.9337 -43.8540 -43.8301 -43.7979  -3.4322
    -3.4128  -3.2638  -3.2485  -3.2258  -3.1997  -3.1595  -3.1449  -3.0688
    -3.0342  -2.9086  -2.8827  -2.8012  -2.7653  -2.7490  -2.7464  -2.6765
    -2.6588  -2.6180  -2.5949  -2.5504  -2.4753  -2.4425  -2.4307  -2.2636
    -2.2214  -2.1159  -2.0606  -2.0460  -2.0265  -1.6713  -1.6284  -1.0709
    -1.0019  -0.2100  -0.1390   1.0528   1.1587   2.1353   2.2370   3.0538
     3.4640   4.1619   4.6479   5.0113   5.5427

          k = 0.1250-0.2652 0.0000 ( 19897 PWs)   bands (ev):

   -45.7279 -44.4545 -44.1330 -43.9338 -43.8541 -43.8301 -43.7979  -3.4743
    -3.4643  -3.3168  -3.2539  -3.2273  -3.2074  -3.1663  -3.1457  -3.0653
    -3.0346  -3.0202  -2.9014  -2.8429  -2.8034  -2.7488  -2.7341  -2.6623
    -2.6602  -2.6274  -2.5157  -2.4846  -2.4342  -2.4026  -2.3591  -2.3012
    -2.2124  -2.1714  -2.1258  -2.0604  -2.0440  -2.0362  -1.8383  -1.0376
    -0.6495  -0.0553   0.0244   1.0978   1.4140   2.1076   2.4599   3.1157
     3.5800   4.0611   4.4150   5.5544   6.1130

          k = 0.1250-0.1768 0.0000 ( 19851 PWs)   bands (ev):

   -45.7278 -44.4545 -44.1330 -43.9338 -43.8541 -43.8302 -43.7977  -3.6585
    -3.5441  -3.3557  -3.3056  -3.2944  -3.2851  -3.2343  -3.1868  -3.1155
    -3.0915  -2.9829  -2.9713  -2.8773  -2.8530  -2.7714  -2.7135  -2.6892
    -2.6238  -2.6163  -2.4850  -2.4452  -2.3810  -2.3217  -2.2735  -2.2482
    -2.2163  -2.1790  -2.1321  -2.1124  -2.0656  -2.0596  -2.0425  -1.6171
    -0.6140   0.4057   0.5228   1.3210   1.9274   2.2971   2.8758   3.2732
     3.5030   4.3602   5.4070   5.5561   5.9975

          k = 0.1250-0.0884 0.0000 ( 19853 PWs)   bands (ev):

   -45.7279 -44.4546 -44.1331 -43.9339 -43.8543 -43.8303 -43.7977  -3.8991
    -3.5827  -3.4546  -3.3841  -3.3636  -3.3130  -3.2695  -3.2373  -3.2128
    -3.0936  -2.9782  -2.9485  -2.9156  -2.9003  -2.8557  -2.6786  -2.6610
    -2.6196  -2.5827  -2.4714  -2.4345  -2.3812  -2.2957  -2.2359  -2.1914
    -2.1570  -2.1328  -2.1144  -2.0938  -2.0745  -2.0616  -1.9874  -1.7592
    -1.0715   0.0648   1.1221   1.8052   2.4418   2.6683   2.9902   3.6345
     4.6595   5.1526   5.5600   5.6010   5.9211

          k = 0.2500-0.0000 0.0000 ( 19968 PWs)   bands (ev):

   -45.7264 -44.4529 -44.1315 -43.9322 -43.8526 -43.8285 -43.7959  -3.7079
    -3.5007  -3.4003  -3.3221  -3.2813  -3.2115  -3.0704  -3.0629  -3.0359
    -2.9670  -2.9562  -2.9319  -2.9151  -2.8609  -2.8146  -2.7600  -2.6894
    -2.5623  -2.4897  -2.4388  -2.3986  -2.3867  -2.3681  -2.3627  -2.3210
    -2.2924  -2.2915  -2.2448  -2.0928  -2.0234  -1.9119  -1.6547  -1.6119
    -0.6374   0.5857   1.7325   2.8827   3.6582   3.8349   4.4703   5.1420
     5.3340   5.4386   5.5645   5.8323   6.0674

          k = 0.2500 0.0884 0.0000 ( 19915 PWs)   bands (ev):

   -45.7263 -44.4528 -44.1314 -43.9321 -43.8524 -43.8284 -43.7958  -3.6212
    -3.4421  -3.4190  -3.2546  -3.2235  -3.2052  -3.0808  -3.0698  -3.0209
    -2.9785  -2.9449  -2.9223  -2.8652  -2.8320  -2.8197  -2.7694  -2.6778
    -2.5566  -2.4967  -2.4716  -2.4082  -2.3913  -2.3424  -2.3358  -2.3127
    -2.2916  -2.2666  -2.2332  -2.1101  -2.0572  -1.9852  -1.7389  -1.5280
    -0.4917   0.7124   1.8147   2.6183   3.3330   3.5661   3.8553   4.3360
     5.0157   5.1831   5.3465   5.6153   6.1110

          k = 0.2500 0.1768 0.0000 ( 19923 PWs)   bands (ev):

   -45.7263 -44.4528 -44.1313 -43.9320 -43.8523 -43.8283 -43.7959  -3.4365
    -3.3770  -3.2801  -3.1830  -3.1601  -3.1189  -3.0984  -3.0421  -3.0187
    -2.9952  -2.9056  -2.8956  -2.8321  -2.8109  -2.7539  -2.7474  -2.6527
    -2.5816  -2.5232  -2.4661  -2.4266  -2.4044  -2.3386  -2.2963  -2.2739
    -2.2657  -2.2391  -2.2086  -2.1771  -2.1499  -1.9883  -1.9236  -1.1904
    -0.1078   0.9746   1.2378   1.9638   2.6415   2.9018   3.5835   3.7550
     4.3134   4.5599   5.1794   5.5872   6.2296

          k = 0.2500 0.2652 0.0000 ( 19896 PWs)   bands (ev):

   -45.7262 -44.4527 -44.1312 -43.9319 -43.8521 -43.8282 -43.7959  -3.3114
    -3.2966  -3.1355  -3.1252  -3.1178  -3.0889  -3.0700  -3.0177  -3.0018
    -2.9080  -2.8919  -2.8572  -2.8269  -2.7606  -2.7152  -2.6426  -2.6229
    -2.5976  -2.5494  -2.4693  -2.4623  -2.4355  -2.4065  -2.3580  -2.3246
    -2.3092  -2.2734  -2.2426  -2.2356  -2.2051  -1.8066  -1.4045  -0.6042
    -0.0088   0.4045   0.4972   1.6096   2.0093   2.5399   3.0190   3.5255
     4.1530   4.6089   5.0068   5.5595   6.6070

          k = 0.2500-0.3536 0.0000 ( 19900 PWs)   bands (ev):

   -45.7262 -44.4527 -44.1312 -43.9319 -43.8521 -43.8282 -43.7960  -3.2714
    -3.2504  -3.1328  -3.1254  -3.0989  -3.0712  -3.0404  -3.0304  -2.9409
    -2.9323  -2.8348  -2.8135  -2.7539  -2.7093  -2.6454  -2.6284  -2.6270
    -2.5956  -2.5834  -2.5438  -2.5223  -2.4485  -2.4440  -2.4158  -2.3916
    -2.3492  -2.3071  -2.2535  -2.2288  -2.2118  -1.0948  -1.0565  -0.5916
    -0.5222   0.1802   0.2549   1.5062   1.6849   2.5549   2.7427   3.4912
     3.9733   4.6510   5.1763   5.7655   6.2844

          k = 0.2500-0.2652 0.0000 ( 19896 PWs)   bands (ev):

   -45.7262 -44.4527 -44.1312 -43.9319 -43.8521 -43.8282 -43.7959  -3.3114
    -3.2966  -3.1355  -3.1252  -3.1178  -3.0889  -3.0700  -3.0177  -3.0018
    -2.9080  -2.8919  -2.8572  -2.8269  -2.7606  -2.7152  -2.6426  -2.6229
    -2.5976  -2.5494  -2.4693  -2.4623  -2.4355  -2.4065  -2.3580  -2.3246
    -2.3092  -2.2734  -2.2426  -2.2356  -2.2051  -1.8066  -1.4045  -0.6042
    -0.0088   0.4045   0.4972   1.6096   2.0093   2.5399   3.0190   3.5255
     4.1530   4.6089   5.0068   5.5595   6.6070

          k = 0.2500-0.1768 0.0000 ( 19923 PWs)   bands (ev):

   -45.7263 -44.4528 -44.1313 -43.9320 -43.8523 -43.8283 -43.7959  -3.4365
    -3.3770  -3.2801  -3.1830  -3.1601  -3.1189  -3.0984  -3.0421  -3.0187
    -2.9952  -2.9056  -2.8956  -2.8321  -2.8109  -2.7539  -2.7474  -2.6527
    -2.5816  -2.5232  -2.4661  -2.4266  -2.4044  -2.3386  -2.2963  -2.2739
    -2.2657  -2.2391  -2.2086  -2.1771  -2.1499  -1.9883  -1.9236  -1.1904
    -0.1078   0.9746   1.2378   1.9638   2.6415   2.9018   3.5835   3.7550
     4.3134   4.5599   5.1794   5.5872   6.2297

          k = 0.2500-0.0884 0.0000 ( 19915 PWs)   bands (ev):

   -45.7263 -44.4528 -44.1314 -43.9321 -43.8524 -43.8284 -43.7958  -3.6212
    -3.4421  -3.4190  -3.2546  -3.2235  -3.2052  -3.0808  -3.0698  -3.0209
    -2.9785  -2.9449  -2.9223  -2.8652  -2.8320  -2.8197  -2.7694  -2.6778
    -2.5566  -2.4967  -2.4716  -2.4082  -2.3913  -2.3424  -2.3358  -2.3127
    -2.2916  -2.2666  -2.2332  -2.1101  -2.0572  -1.9852  -1.7389  -1.5280
    -0.4917   0.7124   1.8147   2.6183   3.3330   3.5661   3.8553   4.3360
     5.0157   5.1831   5.3465   5.6153   6.1110

          k = 0.3750-0.0000 0.0000 ( 19934 PWs)   bands (ev):

   -45.7247 -44.4510 -44.1295 -43.9301 -43.8505 -43.8264 -43.7938  -3.5793
    -3.4883  -3.3918  -3.3900  -3.3314  -3.2696  -3.2623  -3.2553  -3.2107
    -3.1388  -3.0870  -3.0656  -2.9295  -2.8477  -2.8099  -2.7819  -2.7571
    -2.6175  -2.6066  -2.5249  -2.5142  -2.3135  -2.2755  -2.1343  -2.0551
    -1.9996  -1.8805  -1.8466  -1.7759  -1.5981  -1.2999  -0.9813  -0.4064
     0.5318   1.6866   2.6714   2.7719   3.1482   3.6159   4.0894   4.5768
     5.0398   5.3669   5.4018   5.9888   6.2112

          k = 0.3750 0.0884 0.0000 ( 19943 PWs)   bands (ev):

   -45.7247 -44.4510 -44.1295 -43.9301 -43.8505 -43.8265 -43.7939  -3.5026
    -3.4292  -3.3987  -3.3871  -3.3351  -3.2835  -3.2447  -3.2118  -3.1523
    -3.1266  -3.1034  -3.0505  -2.8849  -2.8522  -2.7932  -2.7404  -2.7144
    -2.6399  -2.5576  -2.5205  -2.4939  -2.4041  -2.2050  -2.1611  -2.1121
    -2.0349  -1.8787  -1.8576  -1.7704  -1.6624  -1.2332  -0.9311  -0.3461
     0.6171   1.7752   2.7452   2.8453   3.1668   3.5575   3.8663   4.2231
     4.4314   4.5885   5.1805   5.3798   6.6498

          k = 0.3750 0.1768 0.0000 ( 19944 PWs)   bands (ev):

   -45.7246 -44.4510 -44.1295 -43.9301 -43.8504 -43.8264 -43.7940  -3.4086
    -3.4058  -3.3373  -3.2986  -3.2803  -3.2618  -3.2448  -3.1132  -3.0937
    -3.0784  -3.0611  -3.0170  -2.8345  -2.8002  -2.7426  -2.7002  -2.6271
    -2.5862  -2.5368  -2.4796  -2.4555  -2.4189  -2.2775  -2.2056  -2.1758
    -2.1232  -1.9520  -1.8599  -1.7933  -1.7463  -1.0211  -0.7432  -0.1312
     0.8726   1.9725   2.3932   2.8598   3.0477   3.1488   3.2159   3.4038
     3.5130   4.3792   5.0552   5.6545   6.3764

          k = 0.3750 0.2652 0.0000 ( 19919 PWs)   bands (ev):

   -45.7246 -44.4509 -44.1295 -43.9300 -43.8503 -43.8264 -43.7940  -3.4198
    -3.4141  -3.2968  -3.2846  -3.2086  -3.1905  -3.1265  -3.0699  -3.0498
    -2.9975  -2.9778  -2.8513  -2.8122  -2.7485  -2.6796  -2.6452  -2.5782
    -2.5539  -2.5149  -2.4343  -2.4204  -2.3914  -2.3795  -2.3341  -2.2380
    -2.1781  -1.9419  -1.9201  -1.8211  -1.8003  -0.6100  -0.3173   0.3171
     1.1218   1.2596   1.4593   2.2084   2.5964   2.8085   3.2072   3.4086
     3.5026   4.2726   4.9687   6.0218   6.0480

          k = 0.3750-0.3536 0.0000 ( 19954 PWs)   bands (ev):

   -45.7246 -44.4510 -44.1295 -43.9301 -43.8503 -43.8264 -43.7942  -3.4233
    -3.4191  -3.2984  -3.2899  -3.1584  -3.1436  -3.1172  -3.0995  -2.9959
    -2.9844  -2.8044  -2.8033  -2.7679  -2.7204  -2.6697  -2.6113  -2.5857
    -2.5349  -2.5258  -2.5011  -2.4642  -2.4227  -2.3916  -2.3830  -2.1836
    -2.1488  -1.9558  -1.9214  -1.8462  -1.8360   0.0764   0.1050   0.4047
     0.4608   0.9826   1.0623   2.0223   2.1782   2.8874   3.0748   3.5544
     3.8190   4.0360   4.8648   5.8957   5.9215

          k = 0.3750-0.2652 0.0000 ( 19919 PWs)   bands (ev):

   -45.7246 -44.4509 -44.1295 -43.9300 -43.8503 -43.8264 -43.7940  -3.4198
    -3.4141  -3.2968  -3.2846  -3.2086  -3.1905  -3.1265  -3.0699  -3.0498
    -2.9975  -2.9778  -2.8513  -2.8122  -2.7485  -2.6796  -2.6452  -2.5782
    -2.5539  -2.5149  -2.4343  -2.4204  -2.3914  -2.3795  -2.3341  -2.2380
    -2.1781  -1.9419  -1.9201  -1.8211  -1.8003  -0.6100  -0.3173   0.3171
     1.1218   1.2596   1.4593   2.2084   2.5964   2.8085   3.2072   3.4086
     3.5026   4.2726   4.9687   6.0228   6.0481

          k = 0.3750-0.1768 0.0000 ( 19944 PWs)   bands (ev):

   -45.7246 -44.4510 -44.1295 -43.9301 -43.8504 -43.8264 -43.7940  -3.4086
    -3.4058  -3.3373  -3.2986  -3.2803  -3.2618  -3.2448  -3.1132  -3.0937
    -3.0784  -3.0611  -3.0170  -2.8345  -2.8002  -2.7426  -2.7002  -2.6271
    -2.5862  -2.5368  -2.4796  -2.4555  -2.4189  -2.2775  -2.2056  -2.1758
    -2.1232  -1.9520  -1.8599  -1.7933  -1.7463  -1.0211  -0.7432  -0.1312
     0.8726   1.9725   2.3932   2.8598   3.0477   3.1488   3.2159   3.4038
     3.5130   4.3792   5.0552   5.6544   6.3762

          k = 0.3750-0.0884 0.0000 ( 19943 PWs)   bands (ev):

   -45.7247 -44.4510 -44.1295 -43.9301 -43.8505 -43.8265 -43.7939  -3.5026
    -3.4292  -3.3987  -3.3871  -3.3351  -3.2835  -3.2447  -3.2118  -3.1523
    -3.1266  -3.1034  -3.0505  -2.8849  -2.8522  -2.7932  -2.7404  -2.7144
    -2.6399  -2.5576  -2.5205  -2.4939  -2.4041  -2.2050  -2.1611  -2.1121
    -2.0349  -1.8787  -1.8576  -1.7704  -1.6624  -1.2332  -0.9311  -0.3461
     0.6171   1.7752   2.7452   2.8453   3.1668   3.5575   3.8663   4.2231
     4.4314   4.5885   5.1805   5.3798   6.6520

          k =-0.5000 0.0000 0.0000 ( 19974 PWs)   bands (ev):

   -45.7240 -44.4503 -44.1288 -43.9294 -43.8498 -43.8257 -43.7930  -3.5410
    -3.5112  -3.5070  -3.4804  -3.3715  -3.3583  -3.3013  -3.2580  -3.1655
    -3.1640  -3.1499  -3.0981  -2.9252  -2.9165  -2.9073  -2.7671  -2.7449
    -2.7108  -2.6849  -2.6036  -2.5932  -2.3000  -2.2246  -2.1065  -1.9873
    -1.9220  -1.8614  -1.6334  -1.5894  -1.5205   0.3568   0.5822   0.7178
     1.0609   1.1609   1.8363   1.8900   2.6033   3.1815   3.4426   4.6219
     4.7091   5.5599   5.8190   6.2998   6.6325

          k =-0.5000 0.0884 0.0000 ( 19948 PWs)   bands (ev):

   -45.7240 -44.4502 -44.1288 -43.9293 -43.8497 -43.8256 -43.7930  -3.5170
    -3.5075  -3.4671  -3.4139  -3.3872  -3.3496  -3.3013  -3.2012  -3.1898
    -3.1317  -3.1101  -3.0785  -2.9482  -2.8759  -2.8660  -2.7262  -2.7235
    -2.6895  -2.6435  -2.5977  -2.5678  -2.3897  -2.1486  -2.1252  -2.0611
    -2.0162  -1.7646  -1.7297  -1.5549  -1.5289   0.3919   0.6160   0.8342
     1.1031   1.2301   1.8510   1.9546   2.5872   3.2614   3.3618   4.4110
     4.7688   5.3590   5.3820   5.7641   6.1455

          k =-0.5000 0.1768 0.0000 ( 19956 PWs)   bands (ev):

   -45.7240 -44.4503 -44.1288 -43.9293 -43.8496 -43.8257 -43.7932  -3.5223
    -3.5172  -3.3973  -3.3645  -3.3028  -3.2433  -3.2371  -3.1791  -3.1612
    -3.0658  -3.0274  -2.9906  -2.9206  -2.8899  -2.7240  -2.6769  -2.6665
    -2.6210  -2.5894  -2.5488  -2.5245  -2.4081  -2.2316  -2.1877  -2.1466
    -2.0700  -1.8701  -1.6557  -1.5816  -1.5319   0.5236   0.7450   1.1706
     1.2488   1.4401   1.8980   2.1275   2.5261   3.1504   3.3197   3.7623
     3.8817   4.5131   4.5462   5.1571   5.6388

          k =-0.5000 0.2652 0.0000 ( 19924 PWs)   bands (ev):

   -45.7239 -44.4502 -44.1287 -43.9293 -43.8495 -43.8256 -43.7933  -3.5302
    -3.5240  -3.3987  -3.3837  -3.2077  -3.1666  -3.1466  -3.1457  -3.0210
    -2.9656  -2.9423  -2.9245  -2.8401  -2.8031  -2.6563  -2.6546  -2.5998
    -2.5903  -2.5563  -2.4997  -2.4864  -2.3776  -2.3615  -2.3156  -2.1962
    -2.0850  -1.7579  -1.7360  -1.5825  -1.5520   0.8308   1.0543   1.5470
     1.6889   1.7925   1.9910   2.2531   2.3907   2.4016   2.6460   2.8256
     3.1984   3.8200   4.0489   4.6559   5.3336

          k =-0.5000-0.3536 0.0000 ( 19904 PWs)   bands (ev):

   -45.7238 -44.4501 -44.1287 -43.9292 -43.8494 -43.8255 -43.7933  -3.5320
    -3.5287  -3.3991  -3.3901  -3.1947  -3.1791  -3.1106  -3.0988  -2.9401
    -2.9250  -2.9006  -2.8611  -2.7752  -2.7162  -2.6689  -2.6358  -2.5960
    -2.5800  -2.5378  -2.5067  -2.4917  -2.4617  -2.4438  -2.3647  -2.0796
    -2.0365  -1.7798  -1.7444  -1.5808  -1.5687   1.4178   1.4347   1.6431
     1.6661   1.9375   2.0485   2.1186   2.1310   2.2330   2.3643   2.4195
     2.5821   3.6199   3.8779   4.4906   5.3655

     the Fermi energy is     1.9336 ev

!    total energy              =    -609.94315537 Ry
     estimated scf accuracy    <       0.00000028 Ry
     smearing contrib. (-TS)   =      -0.00160078 Ry
     internal energy E=F+TS    =    -609.94155459 Ry

     The total energy is F=E-TS. E is the sum of the following terms:
     one-electron contribution =   -6073.25106279 Ry
     hartree contribution      =    3076.99207545 Ry
     xc contribution           =    -159.35787062 Ry
     ewald contribution        =    2545.90745868 Ry
     DFT-D3 Dispersion         =      -0.23215531 Ry

     convergence has been achieved in   6 iterations

     negative rho (up, down):  1.454E-05 0.000E+00

     Forces acting on atoms (cartesian axes, Ry/au):

     atom    1 type  1   force =    -0.00000074   -0.00043515    0.01345663
     atom    2 type  1   force =    -0.00000043    0.00070540    0.00222837
     atom    3 type  1   force =    -0.00000079    0.00037096   -0.00357787
     atom    4 type  1   force =     0.00000110    0.00024241    0.00105575
     atom    5 type  1   force =     0.00000168    0.00002362    0.00359595
     atom    6 type  1   force =     0.00000036    0.00004393    0.00890509
     atom    7 type  2   force =    -0.00000029    0.00776831   -0.01995268
     atom    8 type  2   force =    -0.00000049    0.00009298   -0.00156820
     atom    9 type  2   force =    -0.00000014   -0.00008623   -0.00069264
     atom   10 type  2   force =    -0.00000004   -0.00011918   -0.00080131
     atom   11 type  2   force =    -0.00000016   -0.00003441   -0.00306725
     atom   12 type  2   force =     0.00000006   -0.00001448   -0.00613315
     atom   13 type  2   force =    -0.00000010   -0.00855816    0.00655130
     The non-local contrib.  to forces
     atom    1 type  1   force =    -0.00000021   -0.01776549    0.02386912
     atom    2 type  1   force =    -0.00000126   -0.00539546   -0.01138974
     atom    3 type  1   force =    -0.00000065   -0.00106300    0.00374932
     atom    4 type  1   force =     0.00000047   -0.00000462    0.00379385
     atom    5 type  1   force =     0.00000128    0.00059981   -0.00249129
     atom    6 type  1   force =     0.00000014   -0.00015112   -0.05266109
     atom    7 type  2   force =    -0.00000487    0.00655875    0.01371218
     atom    8 type  2   force =    -0.00000585    0.00077304   -0.00091503
     atom    9 type  2   force =    -0.00000417    0.00018174   -0.00162000
     atom   10 type  2   force =    -0.00000407   -0.00001004   -0.00158781
     atom   11 type  2   force =    -0.00000443   -0.00011203   -0.00570254
     atom   12 type  2   force =    -0.00000475    0.00003217   -0.03809910
     atom   13 type  2   force =     0.00001303    0.00196095    0.05317295
     The ionic contribution  to forces
     atom    1 type  1   force =     0.00000161   -0.53110807  103.98034051
     atom    2 type  1   force =     0.00000109    0.02158974   62.39263632
     atom    3 type  1   force =    -0.00000016   -0.00125925   17.26685704
     atom    4 type  1   force =    -0.00000048   -0.00078919  -26.50921753
     atom    5 type  1   force =     0.00000026    0.00041985  -70.47517869
     atom    6 type  1   force =     0.00000004   -0.00015673 -112.42271447
     atom    7 type  2   force =    -0.00000136    0.18495897   30.06642223
     atom    8 type  2   force =    -0.00000063   -0.00453986   16.48880358
     atom    9 type  2   force =    -0.00000072    0.00083761    4.76806259
     atom   10 type  2   force =     0.00000077    0.00059932   -7.23813023
     atom   11 type  2   force =    -0.00000054   -0.00004414  -19.17973148
     atom   12 type  2   force =     0.00000002    0.00012455  -31.39208791
     atom   13 type  2   force =     0.00000011    0.32936720   32.25393807
     The local contribution  to forces
     atom    1 type  1   force =    -0.00000174    0.54735737 -103.98187331
     atom    2 type  1   force =    -0.00000031   -0.01566684  -62.37559145
     atom    3 type  1   force =    -0.00000018    0.00270687  -17.27479473
     atom    4 type  1   force =     0.00000138    0.00103526   26.50487031
     atom    5 type  1   force =    -0.00000091   -0.00099589   70.47807837
     atom    6 type  1   force =    -0.00000063    0.00034053  112.47611635
     atom    7 type  2   force =     0.00000622   -0.18407713  -30.09829889
     atom    8 type  2   force =     0.00000573    0.00389628  -16.48800936
     atom    9 type  2   force =     0.00000503   -0.00111628   -4.76712378
     atom   10 type  2   force =     0.00000324   -0.00071449    7.23829918
     atom   11 type  2   force =     0.00000509    0.00011766   19.18058619
     atom   12 type  2   force =     0.00000445   -0.00017170   31.42190249
     atom   13 type  2   force =    -0.00001340   -0.33963470  -32.29798440
     The core correction contribution to forces
     atom    1 type  1   force =    -0.00000006    0.00114833   -0.00355811
     atom    2 type  1   force =    -0.00000002    0.00001326   -0.00068705
     atom    3 type  1   force =     0.00000006    0.00000191    0.00062815
     atom    4 type  1   force =     0.00000008    0.00000583   -0.00001716
     atom    5 type  1   force =    -0.00000005    0.00000498   -0.00013828
     atom    6 type  1   force =    -0.00000001   -0.00000138    0.00454107
     atom    7 type  2   force =     0.00000000    0.00000000    0.00000000
     atom    8 type  2   force =     0.00000000    0.00000000    0.00000000
     atom    9 type  2   force =     0.00000000    0.00000000    0.00000000
     atom   10 type  2   force =     0.00000000    0.00000000    0.00000000
     atom   11 type  2   force =     0.00000000    0.00000000    0.00000000
     atom   12 type  2   force =     0.00000000    0.00000000    0.00000000
     atom   13 type  2   force =     0.00000000    0.00000000    0.00000000
     The Hubbard contrib.    to forces
     atom    1 type  1   force =     0.00000000    0.00000000    0.00000000
     atom    2 type  1   force =     0.00000000    0.00000000    0.00000000
     atom    3 type  1   force =     0.00000000    0.00000000    0.00000000
     atom    4 type  1   force =     0.00000000    0.00000000    0.00000000
     atom    5 type  1   force =     0.00000000    0.00000000    0.00000000
     atom    6 type  1   force =     0.00000000    0.00000000    0.00000000
     atom    7 type  2   force =     0.00000000    0.00000000    0.00000000
     atom    8 type  2   force =     0.00000000    0.00000000    0.00000000
     atom    9 type  2   force =     0.00000000    0.00000000    0.00000000
     atom   10 type  2   force =     0.00000000    0.00000000    0.00000000
     atom   11 type  2   force =     0.00000000    0.00000000    0.00000000
     atom   12 type  2   force =     0.00000000    0.00000000    0.00000000
     atom   13 type  2   force =     0.00000000    0.00000000    0.00000000
     The SCF correction term to forces
     atom    1 type  1   force =    -0.00000037   -0.00023996   -0.00078332
     atom    2 type  1   force =     0.00000007    0.00017175   -0.00056589
     atom    3 type  1   force =     0.00000011   -0.00001961    0.00001797
     atom    4 type  1   force =    -0.00000036   -0.00000783    0.00106868
     atom    5 type  1   force =     0.00000109   -0.00000711   -0.00030854
     atom    6 type  1   force =     0.00000080    0.00001023   -0.00012077
     atom    7 type  2   force =    -0.00000030    0.00011099   -0.00017791
     atom    8 type  2   force =     0.00000025   -0.00002842    0.00000687
     atom    9 type  2   force =    -0.00000029    0.00001000    0.00010410
     atom   10 type  2   force =     0.00000001    0.00000424    0.00032104
     atom   11 type  2   force =    -0.00000030    0.00000193    0.00005632
     atom   12 type  2   force =     0.00000032   -0.00000175   -0.00001614
     atom   13 type  2   force =     0.00000014    0.00011111   -0.00017085

     DFT-D3 dispersion contribution to forces:
     atom    1 type  1   force =     0.00000000    0.00017038   -0.00452225
     atom    2 type  1   force =    -0.00000002   -0.00000936   -0.00215782
     atom    3 type  1   force =     0.00000001    0.00000173   -0.00001961
     atom    4 type  1   force =     0.00000000    0.00000066    0.00057360
     atom    5 type  1   force =    -0.00000001   -0.00000031    0.00365038
     atom    6 type  1   force =     0.00000000    0.00000011    0.00376001
     atom    7 type  2   force =     0.00000000    0.00021443   -0.00159429
     atom    8 type  2   force =     0.00000000   -0.00001037   -0.00143825
     atom    9 type  2   force =     0.00000000   -0.00000159   -0.00009956
     atom   10 type  2   force =    -0.00000000   -0.00000051    0.00031251
     atom   11 type  2   force =     0.00000000   -0.00000012    0.00174026
     atom   12 type  2   force =    -0.00000000   -0.00000005    0.00218350
     atom   13 type  2   force =    -0.00000000   -0.00036501   -0.00238848

     Total force =     0.030304     Total SCF correction =     0.001574


     Computing stress (Cartesian axis) and pressure


     negative rho (up, down):  1.454E-05 0.000E+00
          total   stress  (Ry/bohr**3)                   (kbar)     P=      -12.66
  -0.00007671   0.00000000   0.00000000          -11.28        0.00        0.00
   0.00000000  -0.00011495  -0.00001385            0.00      -16.91       -2.04
   0.00000000  -0.00001385  -0.00006643            0.00       -2.04       -9.77

     Energy error            =      1.0E-03 Ry
     Gradient error          =      2.0E-02 Ry/Bohr

     number of scf cycles    =   2
     number of bfgs steps    =   1

     energy             old  =    -609.9421200273 Ry
     energy             new  =    -609.9431553715 Ry

     CASE: energy            _new < energy            _old


     WARNING: bfgs curvature condition failed, Theta= 0.867
     new trust radius        =       0.0254419541 bohr
     new conv_thr            =       0.0000001035 Ry


ATOMIC_POSITIONS (angstrom)
Ag            0.7806830953        1.1034106656       20.8608130362
Ag            0.7806818894        3.3129715681       18.8340618454
Ag            0.7806851660        1.1044819992       16.6201918160
Ag            0.7806859210        3.3124505379       14.4174101174
Ag            0.7806851444        1.1040827060       12.2124936533
Ag            0.7806856850        3.3122142297       10.0104070378
Li            2.3420539011        3.3216168543       21.1613385707
Li            2.3420534591        1.1041396199       18.7582569762
Li            2.3420549355        3.3120499860       16.6233980288
Li            2.3420549261        1.1039016706       14.4151864566
Li            2.3420552996        3.3121223875       12.2042066227
Li            2.3420553194        1.1040341890        9.9927233597
Li            0.7806839180        2.5659898578       23.1933503420



     Writing config-only to output data dir ./LiAg_mp-2426_110_hollow_1/LiAg_mp-2426_110_hollow_1.save/
     NEW-OLD atomic charge density approx. for the potential

     negative rho (up, down):  1.491E-05 0.000E+00

     total cpu time spent up to now is       29.4 secs

     per-process dynamical memory:   214.3 Mb

     Self-consistent Calculation

     iteration #  1     ecut=    55.00 Ry     beta= 0.30
     Davidson diagonalization with overlap
     ethr =  1.00E-06,  avg # of iterations =  4.1

     Threshold (ethr) on eigenvalues was too large:
     Diagonalizing with lowered threshold

     Davidson diagonalization with overlap
     ethr =  8.84E-08,  avg # of iterations =  2.8

     negative rho (up, down):  1.477E-05 0.000E+00

     total cpu time spent up to now is       30.9 secs

     total energy              =    -609.94417742 Ry
     estimated scf accuracy    <       0.00007621 Ry

     iteration #  2     ecut=    55.00 Ry     beta= 0.30
     Davidson diagonalization with overlap
     ethr =  8.76E-08,  avg # of iterations =  2.3

     negative rho (up, down):  1.548E-05 0.000E+00

     total cpu time spent up to now is       31.5 secs

     total energy              =    -609.94411737 Ry
     estimated scf accuracy    <       0.00211222 Ry

     iteration #  3     ecut=    55.00 Ry     beta= 0.30
     Davidson diagonalization with overlap
     ethr =  8.76E-08,  avg # of iterations =  2.1

     negative rho (up, down):  1.672E-05 0.000E+00

     total cpu time spent up to now is       32.0 secs

     total energy              =    -609.94419958 Ry
     estimated scf accuracy    <       0.00021516 Ry

     iteration #  4     ecut=    55.00 Ry     beta= 0.30
     Davidson diagonalization with overlap
     ethr =  8.76E-08,  avg # of iterations =  1.1

     negative rho (up, down):  1.681E-05 0.000E+00

     total cpu time spent up to now is       32.4 secs

     total energy              =    -609.94420522 Ry
     estimated scf accuracy    <       0.00009507 Ry

[...]
    -1.9691  -1.8461  -1.8032  -1.7108  -1.5977  -1.1803  -0.8747  -0.2942
     0.6653   1.8663   2.8286   2.9269   3.2604   3.7291   3.8890   4.3055
     4.5099   4.5763   5.2276   5.4599   6.7473

          k = 0.3750 0.1768 0.0000 ( 19944 PWs)   bands (ev):

   -45.6797 -44.5174 -43.9679 -43.8221 -43.7649 -43.7612 -43.7444  -3.3625
    -3.3560  -3.2965  -3.2467  -3.2376  -3.2072  -3.1954  -3.0647  -3.0440
    -3.0295  -3.0060  -2.9593  -2.7870  -2.7508  -2.6988  -2.6615  -2.5838
    -2.5357  -2.5072  -2.4189  -2.4047  -2.3763  -2.2540  -2.1765  -2.1216
    -2.0631  -1.9005  -1.8217  -1.7325  -1.6864  -0.9670  -0.6864  -0.0798
     0.9160   2.0586   2.4797   2.9529   3.1104   3.2090   3.3351   3.5349
     3.5591   4.4439   5.1118   5.6718   6.4643

          k = 0.3750 0.2652 0.0000 ( 19919 PWs)   bands (ev):

   -45.6796 -44.5173 -43.9678 -43.8220 -43.7647 -43.7611 -43.7446  -3.3731
    -3.3654  -3.2451  -3.2312  -3.1614  -3.1487  -3.0772  -3.0204  -2.9906
    -2.9512  -2.9266  -2.8008  -2.7598  -2.6966  -2.6509  -2.6066  -2.5258
    -2.5106  -2.4794  -2.3852  -2.3730  -2.3587  -2.3279  -2.2891  -2.2028
    -2.1187  -1.8977  -1.8700  -1.7744  -1.7370  -0.5554  -0.2588   0.3672
     1.1681   1.2855   1.5549   2.3148   2.6789   2.8897   3.2744   3.4902
     3.6621   4.3872   4.9807   6.0197   6.0849

          k = 0.3750-0.3536 0.0000 ( 19954 PWs)   bands (ev):

   -45.6796 -44.5174 -43.9679 -43.8220 -43.7647 -43.7611 -43.7448  -3.3748
    -3.3727  -3.2461  -3.2369  -3.1092  -3.1006  -3.0746  -3.0411  -2.9542
    -2.9186  -2.7749  -2.7278  -2.7175  -2.6847  -2.6256  -2.5797  -2.5225
    -2.4988  -2.4809  -2.4723  -2.4130  -2.3682  -2.3582  -2.3434  -2.1526
    -2.0845  -1.9064  -1.8765  -1.7894  -1.7820   0.1197   0.1711   0.4707
     0.5067   1.0283   1.1271   2.1071   2.2393   3.0021   3.1683   3.7112
     3.9335   4.1145   4.8872   5.8573   5.9782

          k = 0.3750-0.2652 0.0000 ( 19919 PWs)   bands (ev):

   -45.6796 -44.5173 -43.9678 -43.8220 -43.7647 -43.7611 -43.7446  -3.3731
    -3.3654  -3.2451  -3.2312  -3.1614  -3.1487  -3.0772  -3.0204  -2.9906
    -2.9512  -2.9266  -2.8008  -2.7598  -2.6966  -2.6509  -2.6066  -2.5258
    -2.5106  -2.4794  -2.3852  -2.3730  -2.3587  -2.3279  -2.2891  -2.2028
    -2.1187  -1.8977  -1.8700  -1.7744  -1.7370  -0.5554  -0.2588   0.3672
     1.1681   1.2855   1.5549   2.3148   2.6789   2.8897   3.2744   3.4902
     3.6621   4.3872   4.9807   6.0197   6.0849

          k = 0.3750-0.1768 0.0000 ( 19944 PWs)   bands (ev):

   -45.6797 -44.5174 -43.9679 -43.8221 -43.7649 -43.7612 -43.7444  -3.3625
    -3.3560  -3.2965  -3.2467  -3.2376  -3.2072  -3.1954  -3.0647  -3.0440
    -3.0295  -3.0060  -2.9593  -2.7870  -2.7508  -2.6988  -2.6615  -2.5838
    -2.5357  -2.5072  -2.4189  -2.4047  -2.3763  -2.2540  -2.1765  -2.1216
    -2.0631  -1.9005  -1.8217  -1.7325  -1.6864  -0.9670  -0.6864  -0.0798
     0.9160   2.0586   2.4797   2.9529   3.1104   3.2090   3.3351   3.5349
     3.5591   4.4439   5.1118   5.6718   6.4643

          k = 0.3750-0.0884 0.0000 ( 19943 PWs)   bands (ev):

   -45.6797 -44.5174 -43.9679 -43.8222 -43.7650 -43.7613 -43.7441  -3.4629
    -3.3840  -3.3492  -3.3404  -3.2907  -3.2296  -3.1912  -3.1568  -3.1009
    -3.0761  -3.0521  -2.9980  -2.8356  -2.8039  -2.7397  -2.7096  -2.6654
    -2.5897  -2.5224  -2.4621  -2.4447  -2.3719  -2.1912  -2.1064  -2.0726
    -1.9691  -1.8461  -1.8032  -1.7108  -1.5977  -1.1803  -0.8747  -0.2942
     0.6653   1.8663   2.8286   2.9269   3.2604   3.7291   3.8890   4.3055
     4.5099   4.5763   5.2276   5.4599   6.7473

          k =-0.5000 0.0000 0.0000 ( 19974 PWs)   bands (ev):

   -45.6791 -44.5167 -43.9672 -43.8215 -43.7643 -43.7606 -43.7432  -3.5021
    -3.4658  -3.4547  -3.4358  -3.3173  -3.3074  -3.2575  -3.2032  -3.1172
    -3.1112  -3.0969  -3.0453  -2.8851  -2.8687  -2.8483  -2.7298  -2.6921
    -2.6657  -2.6388  -2.5572  -2.5412  -2.2802  -2.1998  -2.0360  -1.9536
    -1.8715  -1.8185  -1.5865  -1.5238  -1.4599   0.4102   0.6386   0.7721
     1.1326   1.2241   1.8472   1.9983   2.6635   3.2523   3.7380   4.6717
     4.7586   5.5977   5.7751   6.3382   6.6854

          k =-0.5000 0.0884 0.0000 ( 19948 PWs)   bands (ev):

   -45.6790 -44.5167 -43.9671 -43.8214 -43.7642 -43.7605 -43.7433  -3.4688
    -3.4592  -3.4286  -3.3683  -3.3341  -3.2952  -3.2572  -3.1465  -3.1425
    -3.0814  -3.0567  -3.0264  -2.8995  -2.8269  -2.8179  -2.6849  -2.6718
    -2.6418  -2.6115  -2.5400  -2.5184  -2.3578  -2.1431  -2.0512  -2.0358
    -1.9493  -1.7242  -1.6774  -1.4972  -1.4670   0.4453   0.6728   0.8891
     1.1745   1.2933   1.8668   2.0626   2.6308   3.3326   3.6467   4.5757
     4.7326   5.3704   5.4130   5.8113   6.1894

          k =-0.5000 0.1768 0.0000 ( 19956 PWs)   bands (ev):

   -45.6790 -44.5167 -43.9671 -43.8213 -43.7641 -43.7604 -43.7436  -3.4761
    -3.4677  -3.3452  -3.3097  -3.2636  -3.1987  -3.1886  -3.1329  -3.1082
    -3.0148  -2.9783  -2.9334  -2.8762  -2.8393  -2.6788  -2.6280  -2.6221
    -2.5964  -2.5443  -2.4880  -2.4744  -2.3637  -2.2106  -2.1521  -2.0932
    -2.0081  -1.8238  -1.6238  -1.5153  -1.4722   0.5766   0.8031   1.2276
     1.3193   1.5021   1.9292   2.2358   2.5342   3.3717   3.4052   3.7944
     4.0975   4.5550   4.5770   5.2281   5.6717

          k =-0.5000 0.2652 0.0000 ( 19924 PWs)   bands (ev):

   -45.6789 -44.5166 -43.9671 -43.8212 -43.7639 -43.7603 -43.7438  -3.4836
    -3.4755  -3.3468  -3.3300  -3.1583  -3.1203  -3.1039  -3.0959  -2.9644
    -2.9182  -2.8930  -2.8784  -2.7963  -2.7445  -2.6148  -2.6094  -2.5700
    -2.5552  -2.5036  -2.4450  -2.4315  -2.3556  -2.3150  -2.2664  -2.1567
    -2.0294  -1.7273  -1.6798  -1.5312  -1.4877   0.8830   1.1156   1.6163
     1.7543   1.8432   2.0476   2.3615   2.3865   2.4763   2.6872   2.9185
     3.3388   4.0689   4.0988   4.7501   5.4248

          k =-0.5000-0.3536 0.0000 ( 19904 PWs)   bands (ev):

   -45.6789 -44.5166 -43.9670 -43.8211 -43.7639 -43.7602 -43.7439  -3.4839
    -3.4820  -3.3474  -3.3360  -3.1520  -3.1209  -3.0620  -3.0553  -2.8998
    -2.8606  -2.8580  -2.8111  -2.7208  -2.6773  -2.6096  -2.5828  -2.5600
    -2.5578  -2.4972  -2.4654  -2.4275  -2.4127  -2.3920  -2.3501  -2.0451
    -1.9768  -1.7311  -1.7024  -1.5256  -1.5080   1.4493   1.5084   1.6821
     1.7627   2.0303   2.1136   2.1588   2.1946   2.3101   2.3643   2.4859
     2.6589   3.9194   3.9803   4.5816   5.4473

     the Fermi energy is     2.0089 ev

!    total energy              =    -609.95254032 Ry
     estimated scf accuracy    <          6.9E-09 Ry
     smearing contrib. (-TS)   =      -0.00153081 Ry
     internal energy E=F+TS    =    -609.95100951 Ry

     The total energy is F=E-TS. E is the sum of the following terms:
     one-electron contribution =   -6106.02795156 Ry
     hartree contribution      =    3093.55722372 Ry
     xc contribution           =    -159.36117903 Ry
     ewald contribution        =    2562.11384468 Ry
     DFT-D3 Dispersion         =      -0.23294732 Ry

     convergence has been achieved in   7 iterations

     negative rho (up, down):  1.360E-05 0.000E+00

     Forces acting on atoms (cartesian axes, Ry/au):

     atom    1 type  1   force =    -0.00000005   -0.00029919   -0.00068071
     atom    2 type  1   force =     0.00000008    0.00036312    0.00015634
     atom    3 type  1   force =    -0.00000010    0.00017501   -0.00012195
     atom    4 type  1   force =     0.00000010    0.00006634    0.00010714
     atom    5 type  1   force =     0.00000002   -0.00000187   -0.00017880
     atom    6 type  1   force =    -0.00000002    0.00001008   -0.00009809
     atom    7 type  2   force =     0.00000015   -0.00095423    0.00064468
     atom    8 type  2   force =    -0.00000008    0.00043797   -0.00045991
     atom    9 type  2   force =    -0.00000001    0.00019847    0.00069665
     atom   10 type  2   force =     0.00000002    0.00006844    0.00014290
     atom   11 type  2   force =     0.00000002   -0.00000065    0.00063240
     atom   12 type  2   force =    -0.00000020    0.00001716   -0.00041786
     atom   13 type  2   force =     0.00000007   -0.00008064   -0.00042279
     The non-local contrib.  to forces
     atom    1 type  1   force =    -0.00000006   -0.01789386    0.03162883
     atom    2 type  1   force =     0.00000007   -0.00602311   -0.00534725
     atom    3 type  1   force =    -0.00000001   -0.00121853    0.00125227
     atom    4 type  1   force =     0.00000004    0.00004043   -0.00001750
     atom    5 type  1   force =    -0.00000003    0.00069305    0.00346793
     atom    6 type  1   force =    -0.00000012   -0.00018332   -0.03027425
     atom    7 type  2   force =    -0.00000473    0.00186223    0.01756503
     atom    8 type  2   force =    -0.00000418    0.00116307    0.00020182
     atom    9 type  2   force =    -0.00000483    0.00040178   -0.00002977
     atom   10 type  2   force =    -0.00000460    0.00010076   -0.00097487
     atom   11 type  2   force =    -0.00000492   -0.00009621   -0.00341631
     atom   12 type  2   force =    -0.00000705    0.00007888   -0.04207331
     atom   13 type  2   force =     0.00001446    0.00708841    0.05497701
     The ionic contribution  to forces
     atom    1 type  1   force =    -0.00000100   -0.54186110  104.57811453
     atom    2 type  1   force =    -0.00000002   -0.04497091   62.19628746
     atom    3 type  1   force =    -0.00000023    0.00579923   18.14190358
     atom    4 type  1   force =     0.00000033   -0.00123327  -25.94296098
     atom    5 type  1   force =     0.00000078    0.01293197  -71.18686114
     atom    6 type  1   force =     0.00000134   -0.00362650 -112.47936067
     atom    7 type  2   force =     0.00000036    0.01591557   29.04689612
     atom    8 type  2   force =    -0.00000054    0.01458579   17.14977496
     atom    9 type  2   force =     0.00000062    0.00512408    4.90686307
     atom   10 type  2   force =     0.00000012    0.00489147   -7.27804754
     atom   11 type  2   force =    -0.00000112   -0.00267906  -18.81886743
     atom   12 type  2   force =    -0.00000171    0.00122070  -32.47404313
     atom   13 type  2   force =     0.00000108    0.53390205   32.16030117
     The local contribution  to forces
     atom    1 type  1   force =     0.00000104    0.55815935 -104.60549856
     atom    2 type  1   force =    -0.00000013    0.05129119  -62.18711548
     atom    3 type  1   force =     0.00000015   -0.00445602  -18.14287384
     atom    4 type  1   force =    -0.00000025    0.00122612   25.94244783
     atom    5 type  1   force =    -0.00000086   -0.01360965   71.17966003
     atom    6 type  1   force =    -0.00000110    0.00381316  112.49940852
     atom    7 type  2   force =     0.00000453   -0.01906456  -29.06167782
     atom    8 type  2   force =     0.00000467   -0.01532707  -17.14915555
     atom    9 type  2   force =     0.00000424   -0.00531546   -4.90591433
     atom   10 type  2   force =     0.00000455   -0.00491934    7.27895210
     atom   11 type  2   force =     0.00000607    0.00277921   18.82092293
     atom   12 type  2   force =     0.00000856   -0.00128309   32.51386724
     atom   13 type  2   force =    -0.00001544   -0.54075669  -32.21346981
     The core correction contribution to forces
     atom    1 type  1   force =     0.00000001    0.00123046   -0.00170642
     atom    2 type  1   force =    -0.00000000    0.00009955   -0.00034937
     atom    3 type  1   force =     0.00000001    0.00004215   -0.00004618
     atom    4 type  1   force =    -0.00000001    0.00002917    0.00001935
     atom    5 type  1   force =    -0.00000001    0.00000276    0.00038798
     atom    6 type  1   force =    -0.00000000    0.00000393    0.00518711
     atom    7 type  2   force =     0.00000000    0.00000000    0.00000000
     atom    8 type  2   force =     0.00000000    0.00000000    0.00000000
     atom    9 type  2   force =     0.00000000    0.00000000    0.00000000
     atom   10 type  2   force =     0.00000000    0.00000000    0.00000000
     atom   11 type  2   force =     0.00000000    0.00000000    0.00000000
     atom   12 type  2   force =     0.00000000    0.00000000    0.00000000
     atom   13 type  2   force =     0.00000000    0.00000000    0.00000000
     The Hubbard contrib.    to forces
     atom    1 type  1   force =     0.00000000    0.00000000    0.00000000
     atom    2 type  1   force =     0.00000000    0.00000000    0.00000000
     atom    3 type  1   force =     0.00000000    0.00000000    0.00000000
     atom    4 type  1   force =     0.00000000    0.00000000    0.00000000
     atom    5 type  1   force =     0.00000000    0.00000000    0.00000000
     atom    6 type  1   force =     0.00000000    0.00000000    0.00000000
     atom    7 type  2   force =     0.00000000    0.00000000    0.00000000
     atom    8 type  2   force =     0.00000000    0.00000000    0.00000000
     atom    9 type  2   force =     0.00000000    0.00000000    0.00000000
     atom   10 type  2   force =     0.00000000    0.00000000    0.00000000
     atom   11 type  2   force =     0.00000000    0.00000000    0.00000000
     atom   12 type  2   force =     0.00000000    0.00000000    0.00000000
     atom   13 type  2   force =     0.00000000    0.00000000    0.00000000
     The SCF correction term to forces
     atom    1 type  1   force =    -0.00000002    0.00008258    0.00005232
     atom    2 type  1   force =     0.00000018   -0.00005363   -0.00008488
     atom    3 type  1   force =    -0.00000001    0.00002166   -0.00001762
     atom    4 type  1   force =     0.00000001    0.00000501   -0.00005532
     atom    5 type  1   force =     0.00000015   -0.00000379    0.00009260
     atom    6 type  1   force =    -0.00000013   -0.00000010    0.00004385
     atom    7 type  2   force =    -0.00000000   -0.00003623    0.00000051
     atom    8 type  2   force =    -0.00000003    0.00003424   -0.00004592
     atom    9 type  2   force =    -0.00000003    0.00000516    0.00001113
     atom   10 type  2   force =    -0.00000005    0.00000311   -0.00000458
     atom   11 type  2   force =     0.00000000    0.00000102    0.00005703
     atom   12 type  2   force =     0.00000001    0.00000116   -0.00000592
     atom   13 type  2   force =    -0.00000002   -0.00000719   -0.00000708

     DFT-D3 dispersion contribution to forces:
     atom    1 type  1   force =     0.00000000   -0.00001571   -0.00326822
     atom    2 type  1   force =     0.00000000    0.00002094   -0.00323095
     atom    3 type  1   force =     0.00000000   -0.00001258   -0.00033697
     atom    4 type  1   force =    -0.00000001   -0.00000021    0.00067696
     atom    5 type  1   force =     0.00000000   -0.00001530    0.00307700
     atom    6 type  1   force =    -0.00000000    0.00000380    0.00490053
     atom    7 type  2   force =    -0.00000000    0.00036966   -0.00213598
     atom    8 type  2   force =     0.00000000   -0.00001716   -0.00123203
     atom    9 type  2   force =    -0.00000000   -0.00001619   -0.00023026
     atom   10 type  2   force =    -0.00000000   -0.00000665    0.00022098
     atom   11 type  2   force =     0.00000000   -0.00000470    0.00193938
     atom   12 type  2   force =     0.00000000    0.00000042    0.00184045
     atom   13 type  2   force =    -0.00000000   -0.00030632   -0.00222089

     Total force =     0.001963     Total SCF correction =     0.000205
     SCF correction compared to forces is large: reduce conv_thr to get better values


     Computing stress (Cartesian axis) and pressure


     negative rho (up, down):  1.360E-05 0.000E+00
          total   stress  (Ry/bohr**3)                   (kbar)     P=      -12.43
  -0.00008201   0.00000000   0.00000000          -12.06        0.00        0.00
   0.00000000  -0.00010925  -0.00000325            0.00      -16.07       -0.48
   0.00000000  -0.00000325  -0.00006217            0.00       -0.48       -9.15

     Energy error            =      1.6E-05 Ry
     Gradient error          =      9.5E-04 Ry/Bohr

     bfgs converged in  20 scf cycles and  19 bfgs steps
     (criteria: energy <  1.0E-04 Ry, force <  1.0E-03 Ry/Bohr)

     End of BFGS Geometry Optimization

     Final energy             =    -609.9525403175 Ry

     File ./LiAg_mp-2426_110_hollow_1/LiAg_mp-2426_110_hollow_1.bfgs deleted, as requested
Begin final coordinates

ATOMIC_POSITIONS (angstrom)
Ag            0.7806826404        1.1245443017       21.0029434447
Ag            0.7806836520        3.3332682246       18.7595798051
Ag            0.7806840111        1.1140698373       16.5994760463
Ag            0.7806836825        3.3165380636       14.4293745043
Ag            0.7806849614        1.1042815911       12.1934915643
Ag            0.7806852058        3.3130816229       10.1818429706
Li            2.3420531918        3.3692719939       20.9598926571
Li            2.3420538739        1.1236714256       18.8123746179
Li            2.3420537510        3.3187112126       16.5883970944
Li            2.3420541951        1.1062768051       14.3919693313
Li            2.3420552839        3.3119114279       12.2720175645
Li            2.3420563344        1.1047486945        9.8589981532
Li            0.7806878765        2.4330910708       23.2534801093
End final coordinates



     Writing all to output data dir ./LiAg_mp-2426_110_hollow_1/LiAg_mp-2426_110_hollow_1.save/

     init_run     :      6.51s CPU      7.39s WALL (       1 calls)
     electrons    :    104.61s CPU    119.39s WALL (      20 calls)
     update_pot   :      4.59s CPU      4.84s WALL (      19 calls)
     forces       :      4.56s CPU      5.34s WALL (      20 calls)
     force_dftd3  :      0.23s CPU      0.42s WALL (      20 calls)
     stress       :     20.53s CPU     21.32s WALL (      20 calls)
     stres_dftd3  :      0.20s CPU      0.31s WALL (      20 calls)

     Called by init_run:
     wfcinit      :      0.54s CPU      0.94s WALL (       1 calls)
     potinit      :      2.15s CPU      2.17s WALL (       1 calls)
     hinit0       :      3.68s CPU      4.10s WALL (       1 calls)

     Called by electrons:
     c_bands      :     88.37s CPU     98.52s WALL (     183 calls)
     sum_band     :     12.72s CPU     14.35s WALL (     183 calls)
     v_of_rho     :      1.68s CPU      2.26s WALL (     190 calls)
     newd         :      1.14s CPU      1.25s WALL (     190 calls)
     mix_rho      :      0.22s CPU      0.24s WALL (     183 calls)
     energy_dftd3 :      0.06s CPU      0.06s WALL (      20 calls)

     Called by c_bands:
     init_us_2    :      0.54s CPU      0.59s WALL (    3663 calls)
     init_us_2:cp :      0.53s CPU      0.58s WALL (    3663 calls)
     cegterg      :     82.29s CPU     88.10s WALL (    1647 calls)

     Called by *egterg:
     cdiaghg      :     20.68s CPU     20.88s WALL (    6327 calls)
     h_psi        :     49.26s CPU     54.01s WALL (    6624 calls)
     s_psi        :      2.55s CPU      2.60s WALL (    6624 calls)
     g_psi        :      0.15s CPU      0.16s WALL (    4968 calls)

     Called by h_psi:
     h_psi:calbec :      4.26s CPU      5.10s WALL (    6624 calls)
     vloc_psi     :     42.36s CPU     46.17s WALL (    6624 calls)
     add_vuspsi   :      2.50s CPU      2.59s WALL (    6624 calls)

     General routines
     calbec       :      7.40s CPU      8.61s WALL (    9171 calls)
     fft          :      5.64s CPU      6.59s WALL (    2962 calls)
     ffts         :      2.18s CPU      2.62s WALL (     373 calls)
     fftw         :     46.63s CPU     50.73s WALL (  524155 calls)
     interpolate  :      2.18s CPU      2.42s WALL (     190 calls)

     Parallel routines

     PWSCF        :   2m21.70s CPU   2m40.51s WALL


   This run was terminated on:   7:26: 7   6Aug2025            

=------------------------------------------------------------------------------=
   JOB DONE.
=------------------------------------------------------------------------------=
