
     Program PWSCF v.7.2 starts on  4Aug2025 at 12:26:10 

     This program is part of the open-source Quantum ESPRESSO suite
     for quantum simulation of materials; please cite
         "P. Giannozzi et al., J. Phys.:Condens. Matter 21 395502 (2009);
         "P. Giannozzi et al., J. Phys.:Condens. Matter 29 465901 (2017);
         "P. Giannozzi et al., J. Chem. Phys. 152 154105 (2020);
          URL http://www.quantum-espresso.org", 
     in publications or presentations arising from this work. More details at
     http://www.quantum-espresso.org/quote

     Parallel version (MPI & OpenMP), running on     256 processor cores
     Number of MPI processes:               256
     Threads/MPI process:                     1

     MPI processes distributed on     4 nodes
     242906 MiB available memory on the printing compute node when the environment starts

     Reading input from LiAg_mp-2426_111.in

     Current dimensions of program PWSCF are:
     Max number of different atomic species (ntypx) = 10
     Max number of k-points (npk) =  40000
     Max angular momentum in pseudopotentials (lmaxx) =  4
     Message from routine iosys:
     restart disabled: needed files not found

     K-points division:     npool     =       4
     R & G space division:  proc/nbgrp/npool/nimage =      64
     Subspace diagonalization in iterative solution of the eigenvalue problem:
     a serial algorithm will be used


     Parallelization info
     --------------------
     sticks:   dense  smooth     PW     G-vecs:    dense   smooth      PW
     Min          37      16      4                 8235     2392     362
     Max          38      17      5                 8258     2433     403
     Sum        2407    1057    313               527639   153843   24959

     Using Slab Decomposition



     bravais-lattice index     =            0
     lattice parameter (alat)  =       8.3454  a.u.
     unit-cell volume          =    2793.3427 (a.u.)^3
     number of atoms/cell      =            6
     number of atomic types    =            2
     number of electrons       =        42.00
     number of Kohn-Sham states=           25
     kinetic-energy cutoff     =      55.0000  Ry
     charge density cutoff     =     500.0000  Ry
     scf convergence threshold =      1.0E-06
     mixing beta               =       0.3000
     number of iterations used =            8  plain     mixing
     energy convergence thresh.=      1.0E-04
     force convergence thresh. =      1.0E-03
     Exchange-correlation= PBE
                           (   1   4   3   4   0   0   0)
     nstep                     =          500


     celldm(1)=   8.345450  celldm(2)=   0.000000  celldm(3)=   0.000000
     celldm(4)=   0.000000  celldm(5)=   0.000000  celldm(6)=   0.000000

     crystal axes: (cart. coord. in units of alat)
               a(1) = (   1.000000   0.000000   0.000000 )  
               a(2) = (   0.500000   0.866025   0.000000 )  
               a(3) = (   0.000000   0.000000   5.549379 )  

     reciprocal axes: (cart. coord. in units 2 pi/alat)
               b(1) = (  1.000000 -0.577350  0.000000 )  
               b(2) = (  0.000000  1.154701  0.000000 )  
               b(3) = ( -0.000000 -0.000000  0.180200 )  


     PseudoPot. # 1 for Ag read from file:
     /home/ecastro/trabajo_final/pseudos/Ag.pbe-n-rrkjus_psl.1.0.0.UPF
     MD5 check sum: 81cdf87bacf708300839c66ee23ce017
     Pseudo is Ultrasoft + core correction, Zval = 11.0
     Generated using &quot;atomic&quot; code by A. Dal Corso  v.6.2.2
     Using radial grid of 1237 points,  6 beta functions with: 
                l(1) =   0
                l(2) =   0
                l(3) =   1
                l(4) =   1
                l(5) =   2
                l(6) =   2
     Q(r) pseudized with 0 coefficients 


     PseudoPot. # 2 for Li read from file:
     /home/ecastro/trabajo_final/pseudos/Li.pbe-s-rrkjus_psl.1.0.0.UPF
     MD5 check sum: 9f98d2529904d60b716d33989e9bc179
     Pseudo is Ultrasoft, Zval =  3.0
     Generated using &quot;atomic&quot; code by A. Dal Corso  v.6.3MaX
     Using radial grid of 1017 points,  4 beta functions with: 
                l(1) =   0
                l(2) =   0
                l(3) =   1
                l(4) =   1
     Q(r) pseudized with 0 coefficients 


     atomic species   valence    mass     pseudopotential
        Ag            11.00   107.86820     Ag( 1.00)
        Li             3.00     6.94100     Li( 1.00)

     No symmetry found



   Cartesian axes

     site n.     atom                  positions (alat units)
         1           Ag  tau(   1) = (   0.2500000   0.1443376   3.2849998  )
         2           Ag  tau(   2) = (   0.7500000   0.4330127   2.8767515  )
         3           Ag  tau(   3) = (   1.2500000   0.7216878   2.4685032  )
         4           Li  tau(   4) = (   1.2500000   0.7216878   3.0808756  )
         5           Li  tau(   5) = (   0.2500000   0.1443376   2.6726274  )
         6           Li  tau(   6) = (   0.7500000   0.4330127   2.2643791  )

     --------------------------------------------
     DFT-D3 Dispersion Correction (no 3-body):
     --------------------------------------------
       Reference C6 values for interpolation: 

         atom   Coordination number   C6
         Li         0.000          2326.89
         Li         0.987           170.64
         Ag         0.000           853.49
         Ag         0.968           537.23

       Values used:

         atom   Coordination number  R0_AB[au]  C6      C8
         Ag         5.092            3.147    537.23  47741.54
         Ag         9.138            3.147    537.23  47741.54
         Ag         7.872            3.147    537.23  47741.54
         Li         8.423            3.303    170.64  12899.87
         Li        10.184            3.303    170.64  12899.87
         Li         5.642            3.303    170.64  12899.87

         Molecular C6 ( Ry / a.u.^6 ) =     11578.42


     number of k points=    34  Methfessel-Paxton smearing, width (Ry)=  0.0300
                       cart. coord. in units 2pi/alat
        k(    1) = (   0.0000000   0.0000000   0.0000000), wk =   0.0312500
        k(    2) = (   0.0000000   0.1443376   0.0000000), wk =   0.0625000
        k(    3) = (   0.0000000   0.2886751   0.0000000), wk =   0.0625000
        k(    4) = (   0.0000000   0.4330127   0.0000000), wk =   0.0625000
        k(    5) = (   0.0000000  -0.5773503   0.0000000), wk =   0.0312500
        k(    6) = (   0.1250000  -0.0721688   0.0000000), wk =   0.0625000
        k(    7) = (   0.1250000   0.0721688   0.0000000), wk =   0.0625000
        k(    8) = (   0.1250000   0.2165064   0.0000000), wk =   0.0625000
        k(    9) = (   0.1250000   0.3608439   0.0000000), wk =   0.0625000
        k(   10) = (   0.1250000  -0.6495191   0.0000000), wk =   0.0625000
        k(   11) = (   0.1250000  -0.5051815   0.0000000), wk =   0.0625000
        k(   12) = (   0.1250000  -0.3608439   0.0000000), wk =   0.0625000
        k(   13) = (   0.1250000  -0.2165064   0.0000000), wk =   0.0625000
        k(   14) = (   0.2500000  -0.1443376   0.0000000), wk =   0.0625000
        k(   15) = (   0.2500000   0.0000000   0.0000000), wk =   0.0625000
        k(   16) = (   0.2500000   0.1443376   0.0000000), wk =   0.0625000
        k(   17) = (   0.2500000   0.2886751   0.0000000), wk =   0.0625000
        k(   18) = (   0.2500000  -0.7216878   0.0000000), wk =   0.0625000
        k(   19) = (   0.2500000  -0.5773503   0.0000000), wk =   0.0625000
        k(   20) = (   0.2500000  -0.4330127   0.0000000), wk =   0.0625000
        k(   21) = (   0.2500000  -0.2886751   0.0000000), wk =   0.0625000
        k(   22) = (   0.3750000  -0.2165064   0.0000000), wk =   0.0625000
        k(   23) = (   0.3750000  -0.0721688   0.0000000), wk =   0.0625000
        k(   24) = (   0.3750000   0.0721688   0.0000000), wk =   0.0625000
        k(   25) = (   0.3750000   0.2165064   0.0000000), wk =   0.0625000
        k(   26) = (   0.3750000  -0.7938566   0.0000000), wk =   0.0625000
        k(   27) = (   0.3750000  -0.6495191   0.0000000), wk =   0.0625000
        k(   28) = (   0.3750000  -0.5051815   0.0000000), wk =   0.0625000
        k(   29) = (   0.3750000  -0.3608439   0.0000000), wk =   0.0625000
        k(   30) = (  -0.5000000   0.2886751   0.0000000), wk =   0.0312500
        k(   31) = (  -0.5000000   0.4330127   0.0000000), wk =   0.0625000
        k(   32) = (  -0.5000000   0.5773503   0.0000000), wk =   0.0625000
        k(   33) = (  -0.5000000   0.7216878   0.0000000), wk =   0.0625000
        k(   34) = (  -0.5000000  -0.2886751   0.0000000), wk =   0.0312500

     Dense  grid:   527639 G-vectors     FFT dimensions: (  60,  60, 360)

     Smooth grid:   153843 G-vectors     FFT dimensions: (  40,  40, 225)

     Estimated max dynamical RAM per process >      16.57 MB

     Estimated total dynamical RAM >       3.77 GB
     Cannot read rho : file not found

     Initial potential from superposition of free atoms

     starting charge      41.9850, renormalised to      42.0000

     negative rho (up, down):  5.971E-05 0.000E+00
     Message from routine qexsd_readschema :
     xml data file ./LiAg_111/LiAg_111.save/data-file-schema.xml not found
     Cannot read wfcs: file not found
     Starting wfcs are   42 randomized atomic wfcs

     total cpu time spent up to now is        6.7 secs

     per-process dynamical memory:   173.3 Mb

     Self-consistent Calculation

     iteration #  1     ecut=    55.00 Ry     beta= 0.30
     Davidson diagonalization with overlap
     c_bands:  1 eigenvalues not converged
     c_bands:  1 eigenvalues not converged
     ethr =  1.00E-05,  avg # of iterations = 16.4

     negative rho (up, down):  4.953E-05 0.000E+00

     total cpu time spent up to now is        7.6 secs

     total energy              =    -297.32834608 Ry
     estimated scf accuracy    <       0.43388652 Ry

     iteration #  2     ecut=    55.00 Ry     beta= 0.30
     Davidson diagonalization with overlap
     ethr =  1.03E-03,  avg # of iterations =  2.6

     negative rho (up, down):  5.777E-05 0.000E+00

     total cpu time spent up to now is        7.9 secs

     total energy              =    -297.41179004 Ry
     estimated scf accuracy    <       0.06818733 Ry

     iteration #  3     ecut=    55.00 Ry     beta= 0.30
     Davidson diagonalization with overlap
     ethr =  1.62E-04,  avg # of iterations =  3.9

     negative rho (up, down):  7.701E-05 0.000E+00

     total cpu time spent up to now is        8.3 secs

     total energy              =    -297.42022813 Ry
     estimated scf accuracy    <       0.01538242 Ry

     iteration #  4     ecut=    55.00 Ry     beta= 0.30
     Davidson diagonalization with overlap
     ethr =  3.66E-05,  avg # of iterations =  5.1

     negative rho (up, down):  4.464E-05 0.000E+00

     total cpu time spent up to now is        8.6 secs

     total energy              =    -297.42180059 Ry
     estimated scf accuracy    <       0.01819129 Ry

     iteration #  5     ecut=    55.00 Ry     beta= 0.30
     Davidson diagonalization with overlap
     ethr =  3.66E-05,  avg # of iterations =  1.9

     negative rho (up, down):  4.028E-05 0.000E+00

     total cpu time spent up to now is        8.8 secs

     total energy              =    -297.42316354 Ry
     estimated scf accuracy    <       0.00078648 Ry

     iteration #  6     ecut=    55.00 Ry     beta= 0.30
     Davidson diagonalization with overlap
     c_bands:  1 eigenvalues not converged
     ethr =  1.87E-06,  avg # of iterations =  8.4

     negative rho (up, down):  4.455E-05 0.000E+00

     total cpu time spent up to now is        9.3 secs

     total energy              =    -297.42331634 Ry
     estimated scf accuracy    <       0.00015906 Ry

     iteration #  7     ecut=    55.00 Ry     beta= 0.30
     Davidson diagonalization with overlap
     ethr =  3.79E-07,  avg # of iterations =  2.4

     negative rho (up, down):  6.072E-05 0.000E+00

     total cpu time spent up to now is        9.5 secs

     total energy              =    -297.42335345 Ry
     estimated scf accuracy    <       0.00002260 Ry

     iteration #  8     ecut=    55.00 Ry     beta= 0.30
     Davidson diagonalization with overlap
     ethr =  5.38E-08,  avg # of iterations =  3.4

     negative rho (up, down):  4.517E-05 0.000E+00

     total cpu time spent up to now is        9.8 secs

     total energy              =    -297.42335832 Ry
     estimated scf accuracy    <       0.00000265 Ry

     iteration #  9     ecut=    55.00 Ry     beta= 0.30
     Davidson diagonalization with overlap
     ethr =  6.31E-09,  avg # of iterations =  3.9

     negative rho (up, down):  2.191E-05 0.000E+00

     total cpu time spent up to now is       10.1 secs

     End of self-consistent calculation

          k = 0.0000 0.0000 0.0000 ( 19117 PWs)   bands (ev):

   -47.8319 -47.1607 -46.8983  -6.4131  -6.0774  -6.0774  -5.9965  -5.9843
    -5.9843  -5.3683  -5.3683  -5.3442  -5.1703  -5.1703  -4.8225  -4.8063
    -4.8063  -4.4891  -4.4891  -3.8780  -1.3887   0.8017   2.2260   2.8652
     2.9366

          k = 0.0000 0.1443 0.0000 ( 19191 PWs)   bands (ev):

   -47.8320 -47.1608 -46.8984  -6.3110  -6.0642  -6.0340  -5.9910  -5.9530
    -5.9349  -5.3693  -5.3466  -5.3110  -5.1803  -5.1636  -4.8431  -4.8233
    -4.8088  -4.5908  -4.4946  -3.7033  -1.2371   0.9349   1.8173   2.3056
     2.3912

          k = 0.0000 0.2887 0.0000 ( 19227 PWs)   bands (ev):

   -47.8320 -47.1607 -46.8984  -6.1503  -6.0009  -5.9557  -5.9275  -5.8331
    -5.7942  -5.3582  -5.3015  -5.2561  -5.2020  -5.0882  -4.8994  -4.8680
    -4.8269  -4.7405  -4.5094  -3.2372  -0.8744  -0.0468   1.2282   1.3725
     1.9355

          k = 0.0000 0.4330 0.0000 ( 19265 PWs)   bands (ev):

   -47.8320 -47.1607 -46.8984  -6.1154  -5.9686  -5.9011  -5.7564  -5.6366
    -5.6329  -5.3544  -5.3078  -5.2385  -5.2116  -5.1085  -4.9822  -4.9142
    -4.7857  -4.5243  -4.4219  -2.6346  -1.7559  -0.1390   0.3913   0.5071
     2.0054

          k = 0.0000-0.5774 0.0000 ( 19296 PWs)   bands (ev):

   -47.8320 -47.1607 -46.8984  -6.1106  -5.9488  -5.8811  -5.7248  -5.4831
    -5.4552  -5.4211  -5.3722  -5.3168  -5.1999  -5.1642  -4.9993  -4.9329
    -4.7797  -4.5287  -3.5612  -3.3340  -1.4511  -0.9808   0.2499   0.7103
     1.6423

          k = 0.1250-0.0722 0.0000 ( 19191 PWs)   bands (ev):

   -47.8320 -47.1608 -46.8984  -6.3110  -6.0642  -6.0340  -5.9910  -5.9530
    -5.9349  -5.3693  -5.3466  -5.3110  -5.1804  -5.1636  -4.8431  -4.8233
    -4.8088  -4.5908  -4.4946  -3.7033  -1.2371   0.9349   1.8173   2.3056
     2.3913

          k = 0.1250 0.0722 0.0000 ( 19191 PWs)   bands (ev):

   -47.8320 -47.1608 -46.8984  -6.3110  -6.0642  -6.0340  -5.9910  -5.9530
    -5.9349  -5.3693  -5.3466  -5.3110  -5.1803  -5.1636  -4.8431  -4.8233
    -4.8088  -4.5908  -4.4946  -3.7033  -1.2371   0.9349   1.8173   2.3056
     2.3913

          k = 0.1250 0.2165 0.0000 ( 19214 PWs)   bands (ev):

   -47.8320 -47.1607 -46.8984  -6.1591  -6.0365  -5.9672  -5.9477  -5.9284
    -5.8090  -5.3524  -5.3241  -5.2684  -5.2052  -5.1118  -4.8936  -4.8334
    -4.8186  -4.7183  -4.5138  -3.3849  -0.9586   0.6561   0.9132   1.3531
     2.6136

          k = 0.1250 0.3608 0.0000 ( 19244 PWs)   bands (ev):

   -47.8319 -47.1607 -46.8984  -6.0652  -5.9562  -5.9160  -5.8634  -5.7855
    -5.6173  -5.3433  -5.2998  -5.2541  -5.2224  -5.0435  -4.9571  -4.8735
    -4.8050  -4.7115  -4.4935  -2.8044  -1.1092  -0.2814   0.1119   1.2293
     1.8445

          k = 0.1250-0.6495 0.0000 ( 19267 PWs)   bands (ev):

   -47.8319 -47.1607 -46.8984  -6.0531  -5.9102  -5.8773  -5.7416  -5.6556
    -5.4637  -5.4021  -5.3108  -5.2653  -5.2187  -5.1312  -4.9929  -4.9195
    -4.7988  -4.6401  -3.8620  -2.7730  -1.7054  -0.6425  -0.0909   0.6766
     1.8357

          k = 0.1250-0.5052 0.0000 ( 19267 PWs)   bands (ev):

   -47.8319 -47.1607 -46.8984  -6.0531  -5.9102  -5.8773  -5.7416  -5.6556
    -5.4637  -5.4021  -5.3108  -5.2653  -5.2187  -5.1312  -4.9929  -4.9195
    -4.7988  -4.6401  -3.8620  -2.7730  -1.7054  -0.6425  -0.0909   0.6766
     1.8358

          k = 0.1250-0.3608 0.0000 ( 19244 PWs)   bands (ev):

   -47.8319 -47.1607 -46.8984  -6.0652  -5.9562  -5.9160  -5.8634  -5.7855
    -5.6173  -5.3433  -5.2998  -5.2541  -5.2224  -5.0435  -4.9571  -4.8736
    -4.8050  -4.7115  -4.4935  -2.8044  -1.1092  -0.2814   0.1119   1.2293
     1.8444

          k = 0.1250-0.2165 0.0000 ( 19214 PWs)   bands (ev):

   -47.8320 -47.1607 -46.8984  -6.1591  -6.0365  -5.9672  -5.9477  -5.9284
    -5.8090  -5.3524  -5.3241  -5.2684  -5.2052  -5.1118  -4.8936  -4.8334
    -4.8186  -4.7183  -4.5138  -3.3849  -0.9586   0.6561   0.9132   1.3531
     2.6136

          k = 0.2500-0.1443 0.0000 ( 19227 PWs)   bands (ev):

   -47.8320 -47.1607 -46.8984  -6.1503  -6.0009  -5.9557  -5.9275  -5.8331
    -5.7942  -5.3582  -5.3015  -5.2561  -5.2020  -5.0882  -4.8994  -4.8679
    -4.8269  -4.7405  -4.5094  -3.2372  -0.8744  -0.0468   1.2282   1.3725
     1.9355

          k = 0.2500 0.0000 0.0000 ( 19214 PWs)   bands (ev):

   -47.8320 -47.1607 -46.8984  -6.1591  -6.0365  -5.9672  -5.9477  -5.9284
    -5.8090  -5.3524  -5.3241  -5.2684  -5.2052  -5.1118  -4.8936  -4.8334
    -4.8186  -4.7183  -4.5138  -3.3849  -0.9586   0.6561   0.9132   1.3531
     2.6142

          k = 0.2500 0.1443 0.0000 ( 19227 PWs)   bands (ev):

   -47.8320 -47.1607 -46.8984  -6.1503  -6.0009  -5.9557  -5.9275  -5.8331
    -5.7942  -5.3582  -5.3015  -5.2561  -5.2020  -5.0882  -4.8994  -4.8680
    -4.8269  -4.7405  -4.5094  -3.2372  -0.8744  -0.0468   1.2282   1.3725
     1.9356

          k = 0.2500 0.2887 0.0000 ( 19244 PWs)   bands (ev):

   -47.8319 -47.1607 -46.8984  -6.0652  -5.9562  -5.9160  -5.8634  -5.7855
    -5.6173  -5.3433  -5.2998  -5.2541  -5.2224  -5.0435  -4.9571  -4.8736
    -4.8050  -4.7115  -4.4935  -2.8044  -1.1092  -0.2814   0.1119   1.2293
     1.8445

          k = 0.2500-0.7217 0.0000 ( 19252 PWs)   bands (ev):

   -47.8319 -47.1606 -46.8983  -5.9280  -5.8978  -5.8482  -5.8272  -5.7624
    -5.4603  -5.3996  -5.2795  -5.2684  -5.2280  -5.0570  -5.0079  -4.8701
    -4.8451  -4.7633  -3.9722  -2.2937  -1.8251  -0.9890   0.2758   0.7403
     1.2084

          k = 0.2500-0.5774 0.0000 ( 19252 PWs)   bands (ev):

   -47.8319 -47.1606 -46.8983  -5.9012  -5.8564  -5.8080  -5.7585  -5.6896
    -5.6411  -5.3049  -5.2584  -5.2343  -5.2059  -5.1347  -4.9985  -4.9091
    -4.8488  -4.8243  -3.1051  -2.9729  -2.0201  -0.6588  -0.3206   0.5569
     1.4619

          k = 0.2500-0.4330 0.0000 ( 19252 PWs)   bands (ev):

   -47.8319 -47.1606 -46.8983  -5.9280  -5.8978  -5.8482  -5.8272  -5.7624
    -5.4603  -5.3996  -5.2795  -5.2684  -5.2280  -5.0570  -5.0079  -4.8701
    -4.8451  -4.7633  -3.9722  -2.2937  -1.8251  -0.9890   0.2758   0.7403
     1.2084

          k = 0.2500-0.2887 0.0000 ( 19244 PWs)   bands (ev):

   -47.8319 -47.1607 -46.8984  -6.0652  -5.9562  -5.9160  -5.8634  -5.7855
    -5.6173  -5.3433  -5.2998  -5.2541  -5.2224  -5.0435  -4.9571  -4.8736
    -4.8050  -4.7115  -4.4935  -2.8044  -1.1092  -0.2814   0.1119   1.2293
     1.8445

          k = 0.3750-0.2165 0.0000 ( 19265 PWs)   bands (ev):

   -47.8320 -47.1607 -46.8984  -6.1154  -5.9686  -5.9011  -5.7564  -5.6366
    -5.6329  -5.3544  -5.3078  -5.2385  -5.2116  -5.1085  -4.9822  -4.9142
    -4.7857  -4.5243  -4.4219  -2.6346  -1.7559  -0.1390   0.3913   0.5071
     2.0054

          k = 0.3750-0.0722 0.0000 ( 19244 PWs)   bands (ev):

   -47.8319 -47.1607 -46.8984  -6.0652  -5.9562  -5.9160  -5.8634  -5.7855
    -5.6173  -5.3433  -5.2998  -5.2541  -5.2224  -5.0435  -4.9571  -4.8735
    -4.8050  -4.7115  -4.4935  -2.8044  -1.1092  -0.2814   0.1119   1.2293
     1.8445

          k = 0.3750 0.0722 0.0000 ( 19244 PWs)   bands (ev):

   -47.8319 -47.1607 -46.8984  -6.0652  -5.9562  -5.9160  -5.8634  -5.7855
    -5.6173  -5.3433  -5.2998  -5.2541  -5.2224  -5.0435  -4.9571  -4.8736
    -4.8050  -4.7115  -4.4935  -2.8044  -1.1092  -0.2814   0.1119   1.2293
     1.8444

          k = 0.3750 0.2165 0.0000 ( 19265 PWs)   bands (ev):

   -47.8320 -47.1607 -46.8984  -6.1154  -5.9686  -5.9011  -5.7564  -5.6366
    -5.6329  -5.3544  -5.3078  -5.2385  -5.2116  -5.1085  -4.9822  -4.9142
    -4.7857  -4.5243  -4.4219  -2.6346  -1.7559  -0.1389   0.3913   0.5071
     2.0054

          k = 0.3750-0.7939 0.0000 ( 19267 PWs)   bands (ev):

   -47.8319 -47.1607 -46.8984  -6.0531  -5.9102  -5.8773  -5.7416  -5.6556
    -5.4637  -5.4021  -5.3108  -5.2653  -5.2187  -5.1312  -4.9929  -4.9195
    -4.7988  -4.6401  -3.8620  -2.7730  -1.7054  -0.6425  -0.0909   0.6766
     1.8357

          k = 0.3750-0.6495 0.0000 ( 19252 PWs)   bands (ev):

   -47.8319 -47.1606 -46.8983  -5.9012  -5.8564  -5.8080  -5.7585  -5.6896
    -5.6411  -5.3049  -5.2584  -5.2343  -5.2059  -5.1347  -4.9985  -4.9091
    -4.8488  -4.8243  -3.1051  -2.9729  -2.0201  -0.6588  -0.3206   0.5569
     1.4619

          k = 0.3750-0.5052 0.0000 ( 19252 PWs)   bands (ev):

   -47.8319 -47.1606 -46.8983  -5.9012  -5.8564  -5.8080  -5.7585  -5.6896
    -5.6411  -5.3049  -5.2584  -5.2343  -5.2059  -5.1347  -4.9985  -4.9091
    -4.8488  -4.8243  -3.1051  -2.9729  -2.0201  -0.6588  -0.3206   0.5569
     1.4619

          k = 0.3750-0.3608 0.0000 ( 19267 PWs)   bands (ev):

   -47.8319 -47.1607 -46.8984  -6.0531  -5.9102  -5.8773  -5.7416  -5.6556
    -5.4637  -5.4021  -5.3108  -5.2653  -5.2187  -5.1312  -4.9929  -4.9195
    -4.7988  -4.6401  -3.8620  -2.7730  -1.7054  -0.6425  -0.0909   0.6766
     1.8358

          k =-0.5000 0.2887 0.0000 ( 19296 PWs)   bands (ev):

   -47.8320 -47.1607 -46.8984  -6.1106  -5.9488  -5.8811  -5.7248  -5.4831
    -5.4552  -5.4211  -5.3722  -5.3168  -5.1999  -5.1642  -4.9993  -4.9329
    -4.7797  -4.5287  -3.5612  -3.3340  -1.4511  -0.9808   0.2499   0.7103
     1.6423

          k =-0.5000 0.4330 0.0000 ( 19267 PWs)   bands (ev):

   -47.8319 -47.1607 -46.8984  -6.0531  -5.9102  -5.8773  -5.7416  -5.6556
    -5.4637  -5.4021  -5.3108  -5.2653  -5.2187  -5.1312  -4.9929  -4.9195
    -4.7988  -4.6401  -3.8620  -2.7730  -1.7054  -0.6425  -0.0910   0.6766
     1.8358

          k =-0.5000 0.5774 0.0000 ( 19252 PWs)   bands (ev):

   -47.8319 -47.1606 -46.8983  -5.9280  -5.8978  -5.8482  -5.8272  -5.7624
    -5.4603  -5.3996  -5.2795  -5.2684  -5.2280  -5.0570  -5.0079  -4.8701
    -4.8451  -4.7633  -3.9722  -2.2937  -1.8251  -0.9890   0.2758   0.7403
     1.2084

          k =-0.5000 0.7217 0.0000 ( 19267 PWs)   bands (ev):

   -47.8319 -47.1607 -46.8984  -6.0531  -5.9102  -5.8773  -5.7416  -5.6556
    -5.4637  -5.4021  -5.3108  -5.2653  -5.2187  -5.1312  -4.9929  -4.9195
    -4.7988  -4.6401  -3.8620  -2.7730  -1.7054  -0.6425  -0.0909   0.6766
     1.8358

          k =-0.5000-0.2887 0.0000 ( 19296 PWs)   bands (ev):

   -47.8320 -47.1607 -46.8984  -6.1106  -5.9488  -5.8811  -5.7248  -5.4831
    -5.4552  -5.4211  -5.3722  -5.3168  -5.1999  -5.1642  -4.9993  -4.9329
    -4.7797  -4.5287  -3.5612  -3.3340  -1.4511  -0.9808   0.2499   0.7103
     1.6423

     the Fermi energy is    -0.8978 ev

!    total energy              =    -297.42335940 Ry
     estimated scf accuracy    <       0.00000051 Ry
     smearing contrib. (-TS)   =      -0.00142031 Ry
     internal energy E=F+TS    =    -297.42193909 Ry

     The total energy is F=E-TS. E is the sum of the following terms:
     one-electron contribution =   -1807.04972253 Ry
     hartree contribution      =     919.87988868 Ry
     xc contribution           =     -77.74236183 Ry
     ewald contribution        =     667.56315104 Ry
     DFT-D3 Dispersion         =      -0.07289445 Ry

     convergence has been achieved in   9 iterations

     negative rho (up, down):  2.191E-05 0.000E+00

     Forces acting on atoms (cartesian axes, Ry/au):

     atom    1 type  1   force =     0.00000189   -0.00000261   -0.01257994
     atom    2 type  1   force =    -0.00000345   -0.00000259    0.00717212
     atom    3 type  1   force =    -0.00000246    0.00000036    0.00964558
     atom    4 type  2   force =     0.00000105    0.00000135    0.00480689
     atom    5 type  2   force =     0.00000124    0.00000200   -0.00245568
     atom    6 type  2   force =     0.00000174    0.00000148   -0.00658897
     The non-local contrib.  to forces
     atom    1 type  1   force =     0.00000366   -0.00000026    0.15762740
     atom    2 type  1   force =    -0.00000494    0.00000024    0.05244514
     atom    3 type  1   force =    -0.00000143   -0.00000347   -0.01547452
     atom    4 type  2   force =    -0.00000002    0.00000020    0.01685635
     atom    5 type  2   force =     0.00000070    0.00000066   -0.00961522
     atom    6 type  2   force =     0.00000028    0.00000023   -0.05895637
     The ionic contribution  to forces
     atom    1 type  1   force =     0.00000000    0.00000000   49.49376482
     atom    2 type  1   force =    -0.00000000   -0.00000000    5.86836429
     atom    3 type  1   force =    -0.00000000    0.00000000  -41.70583350
     atom    4 type  2   force =    -0.00000000   -0.00000000    8.53396117
     atom    5 type  2   force =     0.00000000    0.00000000   -5.86836429
     atom    6 type  2   force =    -0.00000000   -0.00000000  -16.32189249
     The local contribution  to forces
     atom    1 type  1   force =     0.00000936    0.00000389  -49.65753278
     atom    2 type  1   force =     0.00001302    0.00000058   -5.91018181
     atom    3 type  1   force =     0.00001369    0.00000338   41.72531690
     atom    4 type  2   force =    -0.00000319   -0.00000185   -8.54490241
     atom    5 type  2   force =    -0.00000260    0.00000025    5.87501876
     atom    6 type  2   force =    -0.00000158   -0.00000114   16.37278261
     The core correction contribution to forces
     atom    1 type  1   force =     0.00000043    0.00000021   -0.00566924
     atom    2 type  1   force =     0.00000053    0.00000016   -0.00285651
     atom    3 type  1   force =     0.00000057    0.00000002    0.00253703
     atom    4 type  2   force =     0.00000000    0.00000000    0.00000000
     atom    5 type  2   force =     0.00000000    0.00000000    0.00000000
     atom    6 type  2   force =     0.00000000    0.00000000    0.00000000
     The Hubbard contrib.    to forces
     atom    1 type  1   force =     0.00000000    0.00000000    0.00000000
     atom    2 type  1   force =     0.00000000    0.00000000    0.00000000
     atom    3 type  1   force =     0.00000000    0.00000000    0.00000000
     atom    4 type  2   force =     0.00000000    0.00000000    0.00000000
     atom    5 type  2   force =     0.00000000    0.00000000    0.00000000
     atom    6 type  2   force =     0.00000000    0.00000000    0.00000000
     The SCF correction term to forces
     atom    1 type  1   force =    -0.00001284   -0.00000737    0.00103541
     atom    2 type  1   force =    -0.00000000   -0.00000000    0.00000000
     atom    3 type  1   force =    -0.00000000   -0.00000000    0.00000000
     atom    4 type  2   force =     0.00000297    0.00000208   -0.00006856
     atom    5 type  2   force =     0.00000000    0.00000000    0.00000000
     atom    6 type  2   force =     0.00000000    0.00000000    0.00000000

     DFT-D3 dispersion contribution to forces:
     atom    1 type  1   force =    -0.00000000   -0.00000000   -0.00161941
     atom    2 type  1   force =     0.00000000    0.00000000   -0.00054511
     atom    3 type  1   force =     0.00000000    0.00000000    0.00093517
     atom    4 type  2   force =     0.00000000   -0.00000000   -0.00085352
     atom    5 type  2   force =    -0.00000000   -0.00000000    0.00054511
     atom    6 type  2   force =     0.00000000    0.00000000    0.00153777

     Total force =     0.013467     Total SCF correction =     0.001038


     Computing stress (Cartesian axis) and pressure


     negative rho (up, down):  2.191E-05 0.000E+00
          total   stress  (Ry/bohr**3)                   (kbar)     P=       -7.27
  -0.00005472   0.00000000   0.00000000           -8.05        0.00        0.00
   0.00000000  -0.00005472  -0.00000000            0.00       -8.05       -0.00
   0.00000000  -0.00000000  -0.00003879            0.00       -0.00       -5.71


     BFGS Geometry Optimization
     Energy error            =      0.0E+00 Ry
     Gradient error          =      1.3E-02 Ry/Bohr

     number of scf cycles    =   1
     number of bfgs steps    =   0

     energy             new  =    -297.4233593985 Ry

     new trust radius        =       0.0125799415 bohr
     new conv_thr            =       0.0000010000 Ry


ATOMIC_POSITIONS (angstrom)
Ag            1.1040564296        0.6374253196       14.5006304072
Ag            3.3121662948        1.9122801019       12.7043724552    0   0   0
Ag            5.5202771581        3.1871335032       10.9014574851    0   0   0
Li            5.5202777130        3.1871342201       13.6083736372
Li            1.1040554316        0.6374267006       11.8029149701    0   0   0
Li            3.3121662948        1.9122801019       10.0000000000    0   0   0



     Writing config-only to output data dir ./LiAg_111/LiAg_111.save/
     NEW-OLD atomic charge density approx. for the potential

     negative rho (up, down):  2.207E-05 0.000E+00

     total cpu time spent up to now is       11.2 secs

     per-process dynamical memory:   180.8 Mb

     Self-consistent Calculation

     iteration #  1     ecut=    55.00 Ry     beta= 0.30
     Davidson diagonalization with overlap
     ethr =  1.00E-06,  avg # of iterations =  4.0

     Threshold (ethr) on eigenvalues was too large:
     Diagonalizing with lowered threshold

     Davidson diagonalization with overlap
     ethr =  1.53E-08,  avg # of iterations =  3.6

     negative rho (up, down):  2.199E-05 0.000E+00

     total cpu time spent up to now is       11.8 secs

     total energy              =    -297.42353857 Ry
     estimated scf accuracy    <       0.00000740 Ry

     iteration #  2     ecut=    55.00 Ry     beta= 0.30
     Davidson diagonalization with overlap
     ethr =  1.76E-08,  avg # of iterations =  2.1

     negative rho (up, down):  2.197E-05 0.000E+00

     total cpu time spent up to now is       12.1 secs

     total energy              =    -297.42353862 Ry
     estimated scf accuracy    <       0.00001457 Ry

     iteration #  3     ecut=    55.00 Ry     beta= 0.30
     Davidson diagonalization with overlap
     ethr =  1.76E-08,  avg # of iterations =  1.4

     negative rho (up, down):  2.194E-05 0.000E+00

     total cpu time spent up to now is       12.3 secs

     total energy              =    -297.42354028 Ry
     estimated scf accuracy    <       0.00000228 Ry

     iteration #  4     ecut=    55.00 Ry     beta= 0.30
     Davidson diagonalization with overlap
     ethr =  5.42E-09,  avg # of iterations =  1.1

     negative rho (up, down):  2.189E-05 0.000E+00

     total cpu time spent up to now is       12.5 secs

     End of self-consistent calculation

          k = 0.0000 0.0000 0.0000 ( 19117 PWs)   bands (ev):

   -47.8318 -47.1601 -46.8925  -6.4154  -6.0791  -6.0791  -5.9963  -5.9853
    -5.9853  -5.3719  -5.3719  -5.3482  -5.1720  -5.1720  -4.8231  -4.8068
    -4.8068  -4.4887  -4.4887  -3.8766  -1.3855   0.8063   2.2344   2.8960
     2.9492

          k = 0.0000 0.1443 0.0000 ( 19191 PWs)   bands (ev):

   -47.8319 -47.1602 -46.8926  -6.3133  -6.0657  -6.0357  -5.9917  -5.9539
    -5.9350  -5.3727  -5.3496  -5.3144  -5.1823  -5.1654  -4.8443  -4.8242
    -4.8092  -4.5905  -4.4942  -3.7022  -1.2338   0.9395   1.8180   2.3064
     2.3994

          k = 0.0000 0.2887 0.0000 ( 19227 PWs)   bands (ev):

   -47.8319 -47.1602 -46.8926  -6.1522  -6.0016  -5.9572  -5.9294  -5.8336
    -5.7942  -5.3613  -5.3030  -5.2575  -5.2045  -5.0901  -4.9025  -4.8702
    -4.8273  -4.7407  -4.5092  -3.2364  -0.8710  -0.0466   1.2284   1.3765
     1.9353

          k = 0.0000 0.4330 0.0000 ( 19265 PWs)   bands (ev):

   -47.8319 -47.1601 -46.8927  -6.1170  -5.9690  -5.9024  -5.7579  -5.6367
    -5.6331  -5.3572  -5.3076  -5.2386  -5.2143  -5.1106  -4.9864  -4.9186
    -4.7862  -4.5242  -4.4232  -2.6345  -1.7557  -0.1385   0.3939   0.5068
     2.0100

          k = 0.0000-0.5774 0.0000 ( 19296 PWs)   bands (ev):

   -47.8319 -47.1602 -46.8927  -6.1122  -5.9491  -5.8822  -5.7250  -5.4834
    -5.4552  -5.4205  -5.3731  -5.3196  -5.2023  -5.1665  -5.0041  -4.9383
    -4.7800  -4.5286  -3.5628  -3.3339  -1.4508  -0.9819   0.2494   0.7146
     1.6474

          k = 0.1250-0.0722 0.0000 ( 19191 PWs)   bands (ev):

   -47.8319 -47.1602 -46.8926  -6.3133  -6.0657  -6.0357  -5.9917  -5.9539
    -5.9350  -5.3727  -5.3496  -5.3144  -5.1823  -5.1654  -4.8443  -4.8242
    -4.8092  -4.5905  -4.4942  -3.7022  -1.2338   0.9395   1.8180   2.3064
     2.3994

          k = 0.1250 0.0722 0.0000 ( 19191 PWs)   bands (ev):

   -47.8319 -47.1602 -46.8926  -6.3133  -6.0657  -6.0357  -5.9917  -5.9539
    -5.9350  -5.3727  -5.3496  -5.3144  -5.1823  -5.1654  -4.8443  -4.8242
    -4.8092  -4.5905  -4.4942  -3.7022  -1.2338   0.9395   1.8180   2.3064
     2.3994

          k = 0.1250 0.2165 0.0000 ( 19214 PWs)   bands (ev):

   -47.8319 -47.1602 -46.8926  -6.1613  -6.0381  -5.9681  -5.9492  -5.9290
    -5.8091  -5.3549  -5.3270  -5.2701  -5.2077  -5.1136  -4.8965  -4.8341
    -4.8196  -4.7184  -4.5137  -3.3840  -0.9551   0.6569   0.9137   1.3563
     2.6189

          k = 0.1250 0.3608 0.0000 ( 19244 PWs)   bands (ev):

   -47.8319 -47.1601 -46.8926  -6.0668  -5.9573  -5.9167  -5.8649  -5.7864
    -5.6174  -5.3450  -5.3009  -5.2562  -5.2242  -5.0454  -4.9610  -4.8754
    -4.8060  -4.7132  -4.4936  -2.8040  -1.1082  -0.2793   0.1112   1.2305
     1.8477

          k = 0.1250-0.6495 0.0000 ( 19267 PWs)   bands (ev):

   -47.8319 -47.1601 -46.8926  -6.0546  -5.9107  -5.8782  -5.7424  -5.6559
    -5.4638  -5.4018  -5.3128  -5.2672  -5.2204  -5.1335  -4.9976  -4.9239
    -4.7994  -4.6409  -3.8627  -2.7733  -1.7053  -0.6436  -0.0911   0.6809
     1.8380

          k = 0.1250-0.5052 0.0000 ( 19267 PWs)   bands (ev):

   -47.8319 -47.1601 -46.8926  -6.0546  -5.9107  -5.8782  -5.7424  -5.6559
    -5.4638  -5.4018  -5.3128  -5.2672  -5.2204  -5.1335  -4.9976  -4.9239
    -4.7994  -4.6409  -3.8627  -2.7733  -1.7053  -0.6436  -0.0911   0.6809
     1.8381

          k = 0.1250-0.3608 0.0000 ( 19244 PWs)   bands (ev):

   -47.8319 -47.1601 -46.8926  -6.0668  -5.9573  -5.9167  -5.8649  -5.7864
    -5.6174  -5.3450  -5.3009  -5.2562  -5.2242  -5.0454  -4.9610  -4.8754
    -4.8060  -4.7132  -4.4936  -2.8040  -1.1082  -0.2793   0.1112   1.2305
     1.8477

          k = 0.1250-0.2165 0.0000 ( 19214 PWs)   bands (ev):

   -47.8319 -47.1602 -46.8926  -6.1613  -6.0381  -5.9681  -5.9492  -5.9290
    -5.8091  -5.3549  -5.3270  -5.2701  -5.2077  -5.1136  -4.8965  -4.8341
    -4.8196  -4.7184  -4.5137  -3.3840  -0.9551   0.6569   0.9137   1.3563
     2.6189

          k = 0.2500-0.1443 0.0000 ( 19227 PWs)   bands (ev):

   -47.8319 -47.1602 -46.8926  -6.1522  -6.0016  -5.9572  -5.9294  -5.8336
    -5.7942  -5.3613  -5.3030  -5.2575  -5.2045  -5.0901  -4.9025  -4.8702
    -4.8273  -4.7407  -4.5092  -3.2364  -0.8710  -0.0466   1.2284   1.3765
     1.9353

          k = 0.2500 0.0000 0.0000 ( 19214 PWs)   bands (ev):

   -47.8319 -47.1602 -46.8926  -6.1613  -6.0381  -5.9681  -5.9492  -5.9290
    -5.8091  -5.3549  -5.3270  -5.2701  -5.2077  -5.1136  -4.8965  -4.8341
    -4.8196  -4.7184  -4.5137  -3.3840  -0.9551   0.6569   0.9137   1.3563
     2.6189

          k = 0.2500 0.1443 0.0000 ( 19227 PWs)   bands (ev):

   -47.8319 -47.1602 -46.8926  -6.1522  -6.0016  -5.9572  -5.9294  -5.8336
    -5.7942  -5.3613  -5.3030  -5.2575  -5.2045  -5.0901  -4.9025  -4.8702
    -4.8273  -4.7407  -4.5092  -3.2364  -0.8710  -0.0466   1.2284   1.3765
     1.9353

          k = 0.2500 0.2887 0.0000 ( 19244 PWs)   bands (ev):

   -47.8319 -47.1601 -46.8926  -6.0668  -5.9573  -5.9167  -5.8649  -5.7864
    -5.6174  -5.3450  -5.3009  -5.2562  -5.2242  -5.0454  -4.9610  -4.8754
    -4.8060  -4.7132  -4.4936  -2.8040  -1.1082  -0.2793   0.1112   1.2305
     1.8477

          k = 0.2500-0.7217 0.0000 ( 19252 PWs)   bands (ev):

   -47.8319 -47.1601 -46.8926  -5.9287  -5.8995  -5.8493  -5.8276  -5.7629
    -5.4602  -5.3990  -5.2807  -5.2716  -5.2294  -5.0589  -5.0129  -4.8716
    -4.8468  -4.7657  -3.9728  -2.2937  -1.8251  -0.9897   0.2763   0.7407
     1.2109

          k = 0.2500-0.5774 0.0000 ( 19252 PWs)   bands (ev):

   -47.8318 -47.1600 -46.8926  -5.9022  -5.8572  -5.8088  -5.7593  -5.6901
    -5.6413  -5.3050  -5.2594  -5.2345  -5.2068  -5.1383  -5.0029  -4.9130
    -4.8505  -4.8266  -3.1044  -2.9742  -2.0213  -0.6590  -0.3212   0.5564
     1.4665

          k = 0.2500-0.4330 0.0000 ( 19252 PWs)   bands (ev):

   -47.8319 -47.1601 -46.8926  -5.9287  -5.8995  -5.8493  -5.8276  -5.7629
    -5.4602  -5.3990  -5.2807  -5.2716  -5.2294  -5.0589  -5.0129  -4.8716
    -4.8468  -4.7657  -3.9728  -2.2937  -1.8251  -0.9897   0.2763   0.7407
     1.2109

          k = 0.2500-0.2887 0.0000 ( 19244 PWs)   bands (ev):

   -47.8319 -47.1601 -46.8926  -6.0668  -5.9573  -5.9167  -5.8649  -5.7864
    -5.6174  -5.3450  -5.3009  -5.2562  -5.2242  -5.0454  -4.9610  -4.8754
    -4.8060  -4.7132  -4.4936  -2.8040  -1.1082  -0.2793   0.1112   1.2305
     1.8477

          k = 0.3750-0.2165 0.0000 ( 19265 PWs)   bands (ev):

   -47.8319 -47.1601 -46.8927  -6.1170  -5.9690  -5.9024  -5.7579  -5.6367
    -5.6331  -5.3572  -5.3076  -5.2386  -5.2143  -5.1106  -4.9864  -4.9186
    -4.7862  -4.5242  -4.4232  -2.6345  -1.7557  -0.1385   0.3939   0.5068
     2.0100

          k = 0.3750-0.0722 0.0000 ( 19244 PWs)   bands (ev):

   -47.8319 -47.1601 -46.8926  -6.0668  -5.9573  -5.9167  -5.8649  -5.7864
    -5.6174  -5.3450  -5.3009  -5.2562  -5.2242  -5.0454  -4.9610  -4.8754
    -4.8060  -4.7132  -4.4936  -2.8040  -1.1082  -0.2793   0.1112   1.2305
     1.8477

          k = 0.3750 0.0722 0.0000 ( 19244 PWs)   bands (ev):

   -47.8319 -47.1601 -46.8926  -6.0668  -5.9573  -5.9167  -5.8649  -5.7864
    -5.6174  -5.3450  -5.3009  -5.2562  -5.2242  -5.0454  -4.9610  -4.8754
    -4.8060  -4.7132  -4.4936  -2.8040  -1.1082  -0.2793   0.1112   1.2305
     1.8477

          k = 0.3750 0.2165 0.0000 ( 19265 PWs)   bands (ev):

   -47.8319 -47.1601 -46.8927  -6.1170  -5.9690  -5.9024  -5.7579  -5.6367
    -5.6331  -5.3572  -5.3076  -5.2386  -5.2143  -5.1106  -4.9864  -4.9186
    -4.7862  -4.5242  -4.4232  -2.6345  -1.7557  -0.1385   0.3939   0.5068
     2.0100

          k = 0.3750-0.7939 0.0000 ( 19267 PWs)   bands (ev):

   -47.8319 -47.1601 -46.8926  -6.0546  -5.9107  -5.8782  -5.7424  -5.6559
    -5.4638  -5.4018  -5.3128  -5.2672  -5.2204  -5.1335  -4.9976  -4.9239
    -4.7994  -4.6409  -3.8627  -2.7733  -1.7053  -0.6436  -0.0911   0.6809
     1.8380

          k = 0.3750-0.6495 0.0000 ( 19252 PWs)   bands (ev):

   -47.8318 -47.1600 -46.8926  -5.9022  -5.8572  -5.8088  -5.7593  -5.6901
    -5.6413  -5.3050  -5.2594  -5.2345  -5.2068  -5.1383  -5.0029  -4.9130
    -4.8505  -4.8266  -3.1044  -2.9742  -2.0213  -0.6590  -0.3212   0.5564
     1.4665

          k = 0.3750-0.5052 0.0000 ( 19252 PWs)   bands (ev):

   -47.8318 -47.1600 -46.8926  -5.9022  -5.8572  -5.8088  -5.7593  -5.6901
    -5.6413  -5.3050  -5.2594  -5.2345  -5.2068  -5.1383  -5.0029  -4.9130
    -4.8505  -4.8266  -3.1044  -2.9742  -2.0213  -0.6590  -0.3212   0.5564
     1.4665

          k = 0.3750-0.3608 0.0000 ( 19267 PWs)   bands (ev):

   -47.8319 -47.1601 -46.8926  -6.0546  -5.9107  -5.8782  -5.7424  -5.6559
    -5.4638  -5.4018  -5.3128  -5.2672  -5.2204  -5.1335  -4.9976  -4.9239
    -4.7994  -4.6409  -3.8627  -2.7733  -1.7053  -0.6436  -0.0911   0.6809
     1.8381

          k =-0.5000 0.2887 0.0000 ( 19296 PWs)   bands (ev):

   -47.8319 -47.1602 -46.8927  -6.1122  -5.9491  -5.8822  -5.7250  -5.4834
    -5.4552  -5.4205  -5.3731  -5.3196  -5.2023  -5.1665  -5.0041  -4.9383
    -4.7800  -4.5286  -3.5628  -3.3339  -1.4508  -0.9819   0.2494   0.7146
     1.6474

          k =-0.5000 0.4330 0.0000 ( 19267 PWs)   bands (ev):

   -47.8319 -47.1601 -46.8926  -6.0546  -5.9107  -5.8782  -5.7424  -5.6559
    -5.4638  -5.4018  -5.3128  -5.2672  -5.2204  -5.1335  -4.9976  -4.9239
    -4.7994  -4.6409  -3.8627  -2.7733  -1.7053  -0.6436  -0.0911   0.6809
     1.8381

          k =-0.5000 0.5774 0.0000 ( 19252 PWs)   bands (ev):

   -47.8319 -47.1601 -46.8926  -5.9287  -5.8995  -5.8493  -5.8276  -5.7629
    -5.4602  -5.3990  -5.2807  -5.2716  -5.2294  -5.0589  -5.0129  -4.8716
    -4.8468  -4.7657  -3.9728  -2.2937  -1.8251  -0.9897   0.2763   0.7407
     1.2109

          k =-0.5000 0.7217 0.0000 ( 19267 PWs)   bands (ev):

   -47.8319 -47.1601 -46.8926  -6.0546  -5.9107  -5.8782  -5.7424  -5.6559
    -5.4638  -5.4018  -5.3128  -5.2672  -5.2204  -5.1335  -4.9976  -4.9239
    -4.7994  -4.6409  -3.8627  -2.7733  -1.7053  -0.6436  -0.0911   0.6809
     1.8381

          k =-0.5000-0.2887 0.0000 ( 19296 PWs)   bands (ev):

   -47.8319 -47.1602 -46.8927  -6.1122  -5.9491  -5.8822  -5.7250  -5.4834
    -5.4552  -5.4205  -5.3731  -5.3196  -5.2023  -5.1665  -5.0041  -4.9383
    -4.7800  -4.5286  -3.5628  -3.3339  -1.4508  -0.9819   0.2494   0.7146
     1.6474

     the Fermi energy is    -0.8968 ev

!    total energy              =    -297.42354053 Ry
     estimated scf accuracy    <       0.00000011 Ry
     smearing contrib. (-TS)   =      -0.00144196 Ry
     internal energy E=F+TS    =    -297.42209858 Ry

     The total energy is F=E-TS. E is the sum of the following terms:
     one-electron contribution =   -1808.21617278 Ry
     hartree contribution      =     920.46560688 Ry
     xc contribution           =     -77.74318789 Ry
     ewald contribution        =     668.14456621 Ry
     DFT-D3 Dispersion         =      -0.07291099 Ry

     convergence has been achieved in   4 iterations

     negative rho (up, down):  2.189E-05 0.000E+00

     Forces acting on atoms (cartesian axes, Ry/au):

     atom    1 type  1   force =    -0.00000306   -0.00000528   -0.01212601
     atom    2 type  1   force =     0.00000169    0.00000155    0.00744638
     atom    3 type  1   force =     0.00000101    0.00000089    0.00919085
     atom    4 type  2   force =    -0.00000015    0.00000061    0.00467371
     atom    5 type  2   force =     0.00000018    0.00000108   -0.00261724
     atom    6 type  2   force =     0.00000034    0.00000115   -0.00656769
     The non-local contrib.  to forces
     atom    1 type  1   force =    -0.00000185   -0.00000580    0.15732561
     atom    2 type  1   force =     0.00000059   -0.00000029    0.05173571
     atom    3 type  1   force =     0.00000018   -0.00000068   -0.01548660
     atom    4 type  2   force =    -0.00000008   -0.00000032    0.01686593
     atom    5 type  2   force =    -0.00000003   -0.00000025   -0.00983507
     atom    6 type  2   force =     0.00000026   -0.00000001   -0.05911293
     The ionic contribution  to forces
     atom    1 type  1   force =    -0.00000285    0.00000648   49.47462816
     atom    2 type  1   force =     0.00000330   -0.00000206    5.87886472
     atom    3 type  1   force =    -0.00000008   -0.00000053  -41.71375141
     atom    4 type  2   force =    -0.00000004   -0.00000462    8.56386093
     atom    5 type  2   force =    -0.00000034    0.00000073   -5.87843977
     atom    6 type  2   force =     0.00000002   -0.00000001  -16.32516263
     The local contribution  to forces
     atom    1 type  1   force =     0.00000131   -0.00000119  -49.63742519
     atom    2 type  1   force =    -0.00000552    0.00000023   -5.91983032
     atom    3 type  1   force =    -0.00000276    0.00000047   41.73505581
     atom    4 type  2   force =     0.00000003    0.00000439   -8.57523688
     atom    5 type  2   force =     0.00000133   -0.00000044    5.88526463
     atom    6 type  2   force =     0.00000032   -0.00000028   16.37632528
     The core correction contribution to forces
     atom    1 type  1   force =     0.00000019    0.00000012   -0.00571772
     atom    2 type  1   force =    -0.00000011   -0.00000006   -0.00285051
     atom    3 type  1   force =    -0.00000013   -0.00000001    0.00257045
     atom    4 type  2   force =     0.00000000    0.00000000    0.00000000
     atom    5 type  2   force =     0.00000000    0.00000000    0.00000000
     atom    6 type  2   force =     0.00000000    0.00000000    0.00000000
     The Hubbard contrib.    to forces
     atom    1 type  1   force =     0.00000000    0.00000000    0.00000000
     atom    2 type  1   force =     0.00000000    0.00000000    0.00000000
     atom    3 type  1   force =     0.00000000    0.00000000    0.00000000
     atom    4 type  2   force =     0.00000000    0.00000000    0.00000000
     atom    5 type  2   force =     0.00000000    0.00000000    0.00000000
     atom    6 type  2   force =     0.00000000    0.00000000    0.00000000
     The SCF correction term to forces
     atom    1 type  1   force =     0.00000011   -0.00000619    0.00079251
     atom    2 type  1   force =     0.00000000    0.00000000    0.00000000
     atom    3 type  1   force =     0.00000000    0.00000000   -0.00000000
     atom    4 type  2   force =    -0.00000007   -0.00000016    0.00010074
     atom    5 type  2   force =    -0.00000000   -0.00000000   -0.00000000
     atom    6 type  2   force =    -0.00000000    0.00000000   -0.00000000

     DFT-D3 dispersion contribution to forces:
     atom    1 type  1   force =     0.00000000   -0.00000001   -0.00166056
     atom    2 type  1   force =    -0.00000000    0.00000000   -0.00052392
     atom    3 type  1   force =    -0.00000000    0.00000000    0.00094615
     atom    4 type  2   force =     0.00000000    0.00000000   -0.00084817
     atom    5 type  2   force =    -0.00000000   -0.00000000    0.00054704
     atom    6 type  2   force =     0.00000000   -0.00000000    0.00153946

     Total force =     0.012996     Total SCF correction =     0.000799


     Computing stress (Cartesian axis) and pressure


     negative rho (up, down):  2.189E-05 0.000E+00
          total   stress  (Ry/bohr**3)                   (kbar)     P=       -7.18
  -0.00005416   0.00000000  -0.00000000           -7.97        0.00       -0.00
   0.00000000  -0.00005416  -0.00000000            0.00       -7.97       -0.00
  -0.00000000  -0.00000000  -0.00003803           -0.00       -0.00       -5.59

     Energy error            =      1.8E-04 Ry
     Gradient error          =      1.2E-02 Ry/Bohr

     number of scf cycles    =   2
     number of bfgs steps    =   1

     energy             old  =    -297.4233593985 Ry
     energy             new  =    -297.4235405332 Ry

     CASE: energy            _new < energy            _old


     WARNING: bfgs curvature condition failed, Theta= 0.829
     new trust radius        =       0.0138379356 bohr
     new conv_thr            =       0.0000000181 Ry


ATOMIC_POSITIONS (angstrom)
Ag            1.1040561450        0.6374230167       14.4933076874
Ag            3.3121662948        1.9122801019       12.7043724552    0   0   0
Ag            5.5202771581        3.1871335032       10.9014574851    0   0   0
Li            5.5202779933        3.1871348108       13.6111831198
Li            1.1040554316        0.6374267006       11.8029149701    0   0   0
Li            3.3121662948        1.9122801019       10.0000000000    0   0   0



     Writing config-only to output data dir ./LiAg_111/LiAg_111.save/
     NEW-OLD atomic charge density approx. for the potential

     negative rho (up, down):  2.210E-05 0.000E+00

     total cpu time spent up to now is       13.6 secs

     per-process dynamical memory:   210.0 Mb

     Self-consistent Calculation

     iteration #  1     ecut=    55.00 Ry     beta= 0.30
     Davidson diagonalization with overlap
     ethr =  1.00E-06,  avg # of iterations =  4.0

     Threshold (ethr) on eigenvalues was too large:
     Diagonalizing with lowered threshold

     Davidson diagonalization with overlap
     ethr =  6.91E-09,  avg # of iterations =  4.0

     negative rho (up, down):  2.200E-05 0.000E+00

     total cpu time spent up to now is       14.3 secs

     total energy              =    -297.42373099 Ry
     estimated scf accuracy    <       0.00000381 Ry

     iteration #  2     ecut=    55.00 Ry     beta= 0.30
     Davidson diagonalization with overlap
     ethr =  9.08E-09,  avg # of iterations =  2.0

     negative rho (up, down):  2.193E-05 0.000E+00

     total cpu time spent up to now is       14.5 secs

     total energy              =    -297.42373143 Ry
     estimated scf accuracy    <       0.00000080 Ry

     iteration #  3     ecut=    55.00 Ry     beta= 0.30
     Davidson diagonalization with overlap
     ethr =  1.91E-09,  avg # of iterations =  2.0

     negative rho (up, down):  2.191E-05 0.000E+00

     total cpu time spent up to now is       14.8 secs

     total energy              =    -297.42373147 Ry
     estimated scf accuracy    <       0.00000168 Ry

     iteration #  4     ecut=    55.00 Ry     beta= 0.30
     Davidson diagonalization with overlap
     ethr =  1.91E-09,  avg # of iterations =  1.3

     negative rho (up, down):  2.189E-05 0.000E+00

     total cpu time spent up to now is       15.0 secs

     total energy              =    -297.42373166 Ry
     estimated scf accuracy    <       0.00000016 Ry

     iteration #  5     ecut=    55.00 Ry     beta= 0.30
     Davidson diagonalization with overlap
     ethr =  3.92E-10,  avg # of iterations =  2.7

     negative rho (up, down):  2.189E-05 0.000E+00

     total cpu time spent up to now is       15.3 secs

     total energy              =    -297.42373169 Ry
     estimated scf accuracy    <       0.00000003 Ry

     iteration #  6     ecut=    55.00 Ry     beta= 0.30
     Davidson diagonalization with overlap
     ethr =  7.51E-11,  avg # of iterations =  4.3

     negative rho (up, down):  2.186E-05 0.000E+00

     total cpu time spent up to now is       15.6 secs

     End of self-consistent calculation

          k = 0.0000 0.0000 0.0000 ( 19117 PWs)   bands (ev):

   -47.8306 -47.1587 -46.8889  -6.4173  -6.0801  -6.0801  -5.9955  -5.9858
    -5.9858  -5.3754  -5.3754  -5.3523  -5.1733  -5.1733  -4.8233  -4.8071
    -4.8071  -4.4877  -4.4877  -3.8748  -1.3823   0.8105   2.2361   2.8966
     2.9499

          k = 0.0000 0.1443 0.0000 ( 19191 PWs)   bands (ev):

   -47.8307 -47.1588 -46.8890  -6.3153  -6.0667  -6.0367  -5.9918  -5.9542
    -5.9344  -5.3761  -5.3526  -5.3179  -5.1838  -5.1669  -4.8451  -4.8249
    -4.8093  -4.5898  -4.4934  -3.7006  -1.2304   0.9436   1.8193   2.3078
     2.4011

          k = 0.0000 0.2887 0.0000 ( 19227 PWs)   bands (ev):

   -47.8307 -47.1587 -46.8890  -6.1536  -6.0018  -5.9583  -5.9309  -5.8335
    -5.7936  -5.3644  -5.3042  -5.2585  -5.2066  -5.0915  -4.9054  -4.8725
    -4.8275  -4.7406  -4.5086  -3.2352  -0.8674  -0.0460   1.2291   1.3803
     1.9346

          k = 0.0000 0.4330 0.0000 ( 19265 PWs)   bands (ev):

   -47.8307 -47.1587 -46.8890  -6.1180  -5.9687  -5.9031  -5.7589  -5.6360
    -5.6327  -5.3600  -5.3068  -5.2381  -5.2166  -5.1123  -4.9909  -4.9233
    -4.7862  -4.5236  -4.4241  -2.6339  -1.7551  -0.1377   0.3968   0.5070
     2.0133

          k = 0.0000-0.5774 0.0000 ( 19296 PWs)   bands (ev):

   -47.8308 -47.1587 -46.8890  -6.1131  -5.9489  -5.8828  -5.7245  -5.4832
    -5.4544  -5.4190  -5.3734  -5.3223  -5.2045  -5.1686  -5.0093  -4.9443
    -4.7798  -4.5280  -3.5639  -3.3334  -1.4502  -0.9828   0.2494   0.7196
     1.6515

          k = 0.1250-0.0722 0.0000 ( 19191 PWs)   bands (ev):

   -47.8307 -47.1588 -46.8890  -6.3153  -6.0667  -6.0367  -5.9918  -5.9542
    -5.9344  -5.3761  -5.3526  -5.3179  -5.1838  -5.1669  -4.8451  -4.8249
    -4.8093  -4.5898  -4.4934  -3.7006  -1.2304   0.9436   1.8193   2.3078
     2.4011

          k = 0.1250 0.0722 0.0000 ( 19191 PWs)   bands (ev):

   -47.8307 -47.1588 -46.8890  -6.3153  -6.0667  -6.0367  -5.9918  -5.9542
    -5.9344  -5.3761  -5.3526  -5.3179  -5.1838  -5.1669  -4.8451  -4.8249
    -4.8093  -4.5898  -4.4934  -3.7006  -1.2304   0.9436   1.8193   2.3078
     2.4011

          k = 0.1250 0.2165 0.0000 ( 19214 PWs)   bands (ev):

   -47.8307 -47.1587 -46.8890  -6.1631  -6.0391  -5.9684  -5.9501  -5.9290
    -5.8086  -5.3572  -5.3299  -5.2715  -5.2099  -5.1150  -4.8993  -4.8345
    -4.8202  -4.7180  -4.5131  -3.3828  -0.9515   0.6583   0.9147   1.3592
     2.6201

          k = 0.1250 0.3608 0.0000 ( 19244 PWs)   bands (ev):

   -47.8307 -47.1587 -46.8890  -6.0678  -5.9578  -5.9168  -5.8659  -5.7869
    -5.6167  -5.3463  -5.3015  -5.2579  -5.2256  -5.0472  -4.9650  -4.8771
    -4.8066  -4.7147  -4.4932  -2.8031  -1.1068  -0.2769   0.1109   1.2321
     1.8502

          k = 0.1250-0.6495 0.0000 ( 19267 PWs)   bands (ev):

   -47.8307 -47.1587 -46.8890  -6.0554  -5.9107  -5.8786  -5.7425  -5.6555
    -5.4631  -5.4007  -5.3146  -5.2688  -5.2216  -5.1356  -5.0025  -4.9287
    -4.7997  -4.6413  -3.8630  -2.7732  -1.7049  -0.6445  -0.0909   0.6856
     1.8400

          k = 0.1250-0.5052 0.0000 ( 19267 PWs)   bands (ev):

   -47.8307 -47.1587 -46.8890  -6.0554  -5.9107  -5.8786  -5.7425  -5.6555
    -5.4631  -5.4007  -5.3146  -5.2688  -5.2216  -5.1356  -5.0025  -4.9287
    -4.7997  -4.6413  -3.8630  -2.7732  -1.7049  -0.6445  -0.0909   0.6856
     1.8400

          k = 0.1250-0.3608 0.0000 ( 19244 PWs)   bands (ev):

   -47.8307 -47.1587 -46.8890  -6.0678  -5.9578  -5.9168  -5.8659  -5.7869
    -5.6167  -5.3463  -5.3015  -5.2579  -5.2256  -5.0472  -4.9650  -4.8771
    -4.8066  -4.7147  -4.4932  -2.8031  -1.1068  -0.2769   0.1109   1.2321
     1.8502

          k = 0.1250-0.2165 0.0000 ( 19214 PWs)   bands (ev):

   -47.8307 -47.1587 -46.8890  -6.1631  -6.0391  -5.9684  -5.9501  -5.9290
    -5.8086  -5.3572  -5.3299  -5.2715  -5.2099  -5.1150  -4.8993  -4.8345
    -4.8202  -4.7180  -4.5131  -3.3828  -0.9515   0.6583   0.9147   1.3592
     2.6201

          k = 0.2500-0.1443 0.0000 ( 19227 PWs)   bands (ev):

   -47.8307 -47.1587 -46.8890  -6.1536  -6.0018  -5.9583  -5.9309  -5.8335
    -5.7936  -5.3644  -5.3042  -5.2585  -5.2066  -5.0915  -4.9054  -4.8725
    -4.8275  -4.7406  -4.5085  -3.2352  -0.8674  -0.0460   1.2291   1.3803
     1.9346

          k = 0.2500 0.0000 0.0000 ( 19214 PWs)   bands (ev):

   -47.8307 -47.1587 -46.8890  -6.1631  -6.0391  -5.9684  -5.9501  -5.9290
    -5.8086  -5.3572  -5.3299  -5.2715  -5.2099  -5.1150  -4.8993  -4.8345
    -4.8202  -4.7180  -4.5131  -3.3828  -0.9515   0.6583   0.9147   1.3592
     2.6201

          k = 0.2500 0.1443 0.0000 ( 19227 PWs)   bands (ev):

   -47.8307 -47.1587 -46.8890  -6.1536  -6.0018  -5.9583  -5.9309  -5.8335
    -5.7936  -5.3644  -5.3042  -5.2585  -5.2066  -5.0915  -4.9054  -4.8725
    -4.8275  -4.7406  -4.5085  -3.2352  -0.8674  -0.0460   1.2291   1.3803
     1.9346

          k = 0.2500 0.2887 0.0000 ( 19244 PWs)   bands (ev):

   -47.8307 -47.1587 -46.8890  -6.0678  -5.9578  -5.9168  -5.8659  -5.7869
    -5.6167  -5.3463  -5.3015  -5.2579  -5.2256  -5.0472  -4.9650  -4.8771
    -4.8066  -4.7147  -4.4932  -2.8031  -1.1068  -0.2769   0.1109   1.2321
     1.8502

          k = 0.2500-0.7217 0.0000 ( 19252 PWs)   bands (ev):

   -47.8307 -47.1586 -46.8889  -5.9288  -5.9007  -5.8497  -5.8274  -5.7629
    -5.4593  -5.3976  -5.2818  -5.2744  -5.2306  -5.0606  -5.0182  -4.8730
    -4.8482  -4.7680  -3.9729  -2.2933  -1.8247  -0.9901   0.2771   0.7414
     1.2139

          k = 0.2500-0.5774 0.0000 ( 19252 PWs)   bands (ev):

   -47.8306 -47.1586 -46.8889  -5.9025  -5.8575  -5.8090  -5.7596  -5.6898
    -5.6409  -5.3045  -5.2601  -5.2342  -5.2071  -5.1418  -5.0074  -4.9171
    -4.8521  -4.8287  -3.1030  -2.9752  -2.0220  -0.6591  -0.3215   0.5562
     1.4720

          k = 0.2500-0.4330 0.0000 ( 19252 PWs)   bands (ev):

   -47.8307 -47.1586 -46.8889  -5.9288  -5.9007  -5.8497  -5.8274  -5.7629
    -5.4593  -5.3976  -5.2818  -5.2744  -5.2306  -5.0606  -5.0182  -4.8730
    -4.8482  -4.7680  -3.9729  -2.2933  -1.8247  -0.9901   0.2771   0.7414
     1.2139

          k = 0.2500-0.2887 0.0000 ( 19244 PWs)   bands (ev):

   -47.8307 -47.1587 -46.8890  -6.0678  -5.9578  -5.9168  -5.8659  -5.7869
    -5.6167  -5.3463  -5.3015  -5.2579  -5.2256  -5.0472  -4.9650  -4.8771
    -4.8066  -4.7147  -4.4932  -2.8031  -1.1068  -0.2769   0.1109   1.2321
     1.8502

          k = 0.3750-0.2165 0.0000 ( 19265 PWs)   bands (ev):

   -47.8307 -47.1587 -46.8890  -6.1180  -5.9687  -5.9031  -5.7589  -5.6360
    -5.6327  -5.3600  -5.3068  -5.2381  -5.2166  -5.1123  -4.9909  -4.9233
    -4.7862  -4.5236  -4.4241  -2.6339  -1.7551  -0.1377   0.3968   0.5070
     2.0133

          k = 0.3750-0.0722 0.0000 ( 19244 PWs)   bands (ev):

   -47.8307 -47.1587 -46.8890  -6.0678  -5.9578  -5.9168  -5.8659  -5.7869
    -5.6167  -5.3463  -5.3015  -5.2579  -5.2256  -5.0472  -4.9650  -4.8771
    -4.8066  -4.7147  -4.4932  -2.8031  -1.1068  -0.2769   0.1109   1.2321
     1.8502

          k = 0.3750 0.0722 0.0000 ( 19244 PWs)   bands (ev):

   -47.8307 -47.1587 -46.8890  -6.0678  -5.9578  -5.9168  -5.8659  -5.7869
    -5.6167  -5.3463  -5.3015  -5.2579  -5.2256  -5.0472  -4.9650  -4.8771
    -4.8066  -4.7147  -4.4932  -2.8031  -1.1068  -0.2769   0.1109   1.2321
     1.8502

          k = 0.3750 0.2165 0.0000 ( 19265 PWs)   bands (ev):

   -47.8307 -47.1587 -46.8890  -6.1180  -5.9687  -5.9031  -5.7589  -5.6360
    -5.6327  -5.3600  -5.3068  -5.2381  -5.2166  -5.1123  -4.9909  -4.9233
    -4.7862  -4.5236  -4.4241  -2.6339  -1.7551  -0.1377   0.3968   0.5070
     2.0133

          k = 0.3750-0.7939 0.0000 ( 19267 PWs)   bands (ev):

   -47.8307 -47.1587 -46.8890  -6.0554  -5.9107  -5.8786  -5.7425  -5.6555
    -5.4631  -5.4007  -5.3146  -5.2688  -5.2216  -5.1356  -5.0025  -4.9287
    -4.7997  -4.6413  -3.8630  -2.7732  -1.7049  -0.6445  -0.0909   0.6856
     1.8400

          k = 0.3750-0.6495 0.0000 ( 19252 PWs)   bands (ev):

   -47.8306 -47.1586 -46.8889  -5.9025  -5.8575  -5.8090  -5.7596  -5.6898
    -5.6409  -5.3045  -5.2601  -5.2342  -5.2071  -5.1418  -5.0074  -4.9171
    -4.8521  -4.8287  -3.1030  -2.9752  -2.0220  -0.6591  -0.3215   0.5562
     1.4720

          k = 0.3750-0.5052 0.0000 ( 19252 PWs)   bands (ev):

   -47.8306 -47.1586 -46.8889  -5.9025  -5.8575  -5.8090  -5.7596  -5.6898
    -5.6409  -5.3045  -5.2601  -5.2342  -5.2071  -5.1418  -5.0074  -4.9171
    -4.8521  -4.8287  -3.1030  -2.9752  -2.0220  -0.6591  -0.3215   0.5562
     1.4720

          k = 0.3750-0.3608 0.0000 ( 19267 PWs)   bands (ev):

   -47.8307 -47.1587 -46.8890  -6.0554  -5.9107  -5.8786  -5.7425  -5.6555
    -5.4631  -5.4007  -5.3146  -5.2688  -5.2216  -5.1356  -5.0025  -4.9287
    -4.7997  -4.6413  -3.8630  -2.7732  -1.7049  -0.6445  -0.0909   0.6856
     1.8400

          k =-0.5000 0.2887 0.0000 ( 19296 PWs)   bands (ev):

   -47.8308 -47.1587 -46.8890  -6.1131  -5.9489  -5.8828  -5.7245  -5.4832
    -5.4544  -5.4190  -5.3734  -5.3223  -5.2045  -5.1686  -5.0093  -4.9443
    -4.7798  -4.5280  -3.5639  -3.3334  -1.4502  -0.9828   0.2494   0.7196
     1.6515

          k =-0.5000 0.4330 0.0000 ( 19267 PWs)   bands (ev):

   -47.8307 -47.1587 -46.8890  -6.0554  -5.9107  -5.8786  -5.7425  -5.6555
    -5.4631  -5.4007  -5.3146  -5.2688  -5.2216  -5.1356  -5.0025  -4.9287
    -4.7997  -4.6413  -3.8630  -2.7732  -1.7049  -0.6445  -0.0909   0.6856
     1.8400

          k =-0.5000 0.5774 0.0000 ( 19252 PWs)   bands (ev):

   -47.8307 -47.1586 -46.8889  -5.9288  -5.9007  -5.8497  -5.8274  -5.7629
    -5.4593  -5.3976  -5.2818  -5.2744  -5.2306  -5.0606  -5.0182  -4.8730
    -4.8482  -4.7680  -3.9729  -2.2933  -1.8247  -0.9901   0.2771   0.7414
     1.2139

          k =-0.5000 0.7217 0.0000 ( 19267 PWs)   bands (ev):

   -47.8307 -47.1587 -46.8890  -6.0554  -5.9107  -5.8786  -5.7425  -5.6555
    -5.4631  -5.4007  -5.3146  -5.2688  -5.2216  -5.1356  -5.0025  -4.9287
    -4.7997  -4.6413  -3.8630  -2.7732  -1.7049  -0.6445  -0.0909   0.6856
     1.8400

          k =-0.5000-0.2887 0.0000 ( 19296 PWs)   bands (ev):

   -47.8308 -47.1587 -46.8890  -6.1131  -5.9489  -5.8828  -5.7245  -5.4832
    -5.4544  -5.4190  -5.3734  -5.3223  -5.2045  -5.1686  -5.0093  -4.9443
    -4.7798  -4.5280  -3.5639  -3.3334  -1.4502  -0.9828   0.2494   0.7196
     1.6515

     the Fermi energy is    -0.8955 ev

!    total energy              =    -297.42373170 Ry
     estimated scf accuracy    <          2.7E-09 Ry
     smearing contrib. (-TS)   =      -0.00146516 Ry
     internal energy E=F+TS    =    -297.42226654 Ry

     The total energy is F=E-TS. E is the sum of the following terms:
     one-electron contribution =   -1809.48881144 Ry
     hartree contribution      =     921.10008843 Ry
     xc contribution           =     -77.74410288 Ry
     ewald contribution        =     668.78348915 Ry
     DFT-D3 Dispersion         =      -0.07292980 Ry

     convergence has been achieved in   6 iterations

     negative rho (up, down):  2.186E-05 0.000E+00

     Forces acting on atoms (cartesian axes, Ry/au):

     atom    1 type  1   force =    -0.00000093    0.00000048   -0.01182054
     atom    2 type  1   force =     0.00000026   -0.00000023    0.00726216
     atom    3 type  1   force =     0.00000034   -0.00000008    0.00939035
     atom    4 type  2   force =     0.00000007   -0.00000030    0.00444656
     atom    5 type  2   force =     0.00000015    0.00000007   -0.00279145
     atom    6 type  2   force =     0.00000012    0.00000005   -0.00648708
     The non-local contrib.  to forces
     atom    1 type  1   force =    -0.00000066    0.00000034    0.15662581
     atom    2 type  1   force =    -0.00000016   -0.00000024    0.05063247
     atom    3 type  1   force =     0.00000004   -0.00000013   -0.01559815
     atom    4 type  2   force =    -0.00000006   -0.00000026    0.01682407
     atom    5 type  2   force =    -0.00000002    0.00000002   -0.01001755
     atom    6 type  2   force =    -0.00000001   -0.00000002   -0.05916046
     The ionic contribution  to forces
     atom    1 type  1   force =    -0.00000130    0.00001640   49.45301496
     atom    2 type  1   force =     0.00000312   -0.00000660    5.89071743
     atom    3 type  1   force =    -0.00000024   -0.00000117  -41.72242991
     atom    4 type  2   force =    -0.00000141   -0.00001049    8.59705519
     atom    5 type  2   force =    -0.00000017    0.00000187   -5.88960136
     atom    6 type  2   force =     0.00000002   -0.00000002  -16.32875632
     The local contribution  to forces
     atom    1 type  1   force =     0.00000240   -0.00001576  -49.61389228
     atom    2 type  1   force =    -0.00000338    0.00000713   -5.93078800
     atom    3 type  1   force =    -0.00000030    0.00000114   41.74392036
     atom    4 type  2   force =     0.00000130    0.00001044   -8.60860667
     atom    5 type  2   force =     0.00000032   -0.00000178    5.89625151
     atom    6 type  2   force =     0.00000008   -0.00000007   16.37986731
     The core correction contribution to forces
     atom    1 type  1   force =     0.00000006   -0.00000002   -0.00577499
     atom    2 type  1   force =    -0.00000002    0.00000003   -0.00282480
     atom    3 type  1   force =    -0.00000002    0.00000000    0.00254978
     atom    4 type  2   force =     0.00000000    0.00000000    0.00000000
     atom    5 type  2   force =     0.00000000    0.00000000    0.00000000
     atom    6 type  2   force =     0.00000000    0.00000000    0.00000000
     The Hubbard contrib.    to forces
     atom    1 type  1   force =     0.00000000    0.00000000    0.00000000
     atom    2 type  1   force =     0.00000000    0.00000000    0.00000000
     atom    3 type  1   force =     0.00000000    0.00000000    0.00000000
     atom    4 type  2   force =     0.00000000    0.00000000    0.00000000
     atom    5 type  2   force =     0.00000000    0.00000000    0.00000000
     atom    6 type  2   force =     0.00000000    0.00000000    0.00000000
     The SCF correction term to forces
     atom    1 type  1   force =    -0.00000159   -0.00000048   -0.00009860
     atom    2 type  1   force =     0.00000000   -0.00000000    0.00000000
     atom    3 type  1   force =     0.00000000    0.00000000   -0.00000000
     atom    4 type  2   force =     0.00000008   -0.00000003    0.00000594
     atom    5 type  2   force =    -0.00000000   -0.00000000    0.00000000
     atom    6 type  2   force =    -0.00000000    0.00000000    0.00000000

     DFT-D3 dispersion contribution to forces:
     atom    1 type  1   force =     0.00000000   -0.00000002   -0.00170574
     atom    2 type  1   force =    -0.00000000    0.00000001   -0.00050060
     atom    3 type  1   force =    -0.00000000    0.00000000    0.00095826
     atom    4 type  2   force =     0.00000000    0.00000001   -0.00084229
     atom    5 type  2   force =    -0.00000000   -0.00000000    0.00054908
     atom    6 type  2   force =     0.00000000   -0.00000000    0.00154130

     Total force =     0.012629     Total SCF correction =     0.000099


     Computing stress (Cartesian axis) and pressure


     negative rho (up, down):  2.186E-05 0.000E+00
          total   stress  (Ry/bohr**3)                   (kbar)     P=       -7.17
  -0.00005412   0.00000000   0.00000000           -7.96        0.00        0.00
   0.00000000  -0.00005412   0.00000000            0.00       -7.96        0.00
   0.00000000   0.00000000  -0.00003791            0.00        0.00       -5.58

     Energy error            =      1.9E-04 Ry
     Gradient error          =      1.2E-02 Ry/Bohr

     number of scf cycles    =   3
     number of bfgs steps    =   2

     energy             old  =    -297.4235405332 Ry
     energy             new  =    -297.4237317024 Ry

     CASE: energy            _new < energy            _old

     new trust radius        =       0.0207569034 bohr
     new conv_thr            =       0.0000000191 Ry


ATOMIC_POSITIONS (angstrom)
Ag            1.1040573764        0.6374241344       14.4823236073
Ag            3.3121662948        1.9122801019       12.7043724552    0   0   0
Ag            5.5202771581        3.1871335032       10.9014574851    0   0   0
Li            5.5202785901        3.1871349673       13.6153084545
Li            1.1040554316        0.6374267006       11.8029149701    0   0   0
Li            3.3121662948        1.9122801019       10.0000000000    0   0   0



     Writing config-only to output data dir ./LiAg_111/LiAg_111.save/
     NEW-OLD atomic charge density approx. for the potential

     negative rho (up, down):  2.237E-05 0.000E+00

     total cpu time spent up to now is       16.6 secs

     per-process dynamical memory:   214.4 Mb

     Self-consistent Calculation

     iteration #  1     ecut=    55.00 Ry     beta= 0.30
     Davidson diagonalization with overlap
     ethr =  1.00E-06,  avg # of iterations =  4.2

     Threshold (ethr) on eigenvalues was too large:
     Diagonalizing with lowered threshold

     Davidson diagonalization with overlap
     ethr =  2.03E-08,  avg # of iterations =  4.5

     negative rho (up, down):  2.215E-05 0.000E+00

     total cpu time spent up to now is       17.3 secs

     total energy              =    -297.42399927 Ry
     estimated scf accuracy    <       0.00001191 Ry

     iteration #  2     ecut=    55.00 Ry     beta= 0.30
     Davidson diagonalization with overlap
     ethr =  2.84E-08,  avg # of iterations =  2.0

     negative rho (up, down):  2.204E-05 0.000E+00

     total cpu time spent up to now is       17.5 secs

     total energy              =    -297.42400017 Ry
     estimated scf accuracy    <       0.00000669 Ry

     iteration #  3     ecut=    55.00 Ry     beta= 0.30
     Davidson diagonalization with overlap
     ethr =  1.59E-08,  avg # of iterations =  1.4

     negative rho (up, down):  2.199E-05 0.000E+00

     total cpu time spent up to now is       17.7 secs

     total energy              =    -297.42400090 Ry
     estimated scf accuracy    <       0.00000741 Ry

     iteration #  4     ecut=    55.00 Ry     beta= 0.30
     Davidson diagonalization with overlap
     ethr =  1.59E-08,  avg # of iterations =  1.1

     negative rho (up, down):  2.191E-05 0.000E+00

     total cpu time spent up to now is       17.9 secs

     total energy              =    -297.42400164 Ry
     estimated scf accuracy    <       0.00000036 Ry

     iteration #  5     ecut=    55.00 Ry     beta= 0.30
     Davidson diagonalization with overlap
     ethr =  8.55E-10,  avg # of iterations =  3.4

     negative rho (up, down):  2.191E-05 0.000E+00

     total cpu time spent up to now is       18.1 secs

     total energy              =    -297.42400174 Ry
     estimated scf accuracy    <       0.00000008 Ry

     iteration #  6     ecut=    55.00 Ry     beta= 0.30
     Davidson diagonalization with overlap
     ethr =  1.80E-10,  avg # of iterations =  3.2

     negative rho (up, down):  2.184E-05 0.000E+00

     total cpu time spent up to now is       18.4 secs

     End of self-consistent calculation

          k = 0.0000 0.0000 0.0000 ( 19117 PWs)   bands (ev):

   -47.8291 -47.1567 -46.8844  -6.4205  -6.0824  -6.0824  -5.9946  -5.9871
    -5.9871  -5.3810  -5.3810  -5.3586  -5.1754  -5.1754  -4.8239  -4.8076
    -4.8076  -4.4867  -4.4867  -3.8722  -1.3774   0.8167   2.2389   2.8975
     2.9509

          k = 0.0000 0.1443 0.0000 ( 19191 PWs)   bands (ev):

   -47.8292 -47.1568 -46.8845  -6.3186  -6.0688  -6.0390  -5.9926  -5.9552
    -5.9339  -5.3815  -5.3573  -5.3233  -5.1863  -5.1692  -4.8466  -4.8260
    -4.8096  -4.5890  -4.4925  -3.6983  -1.2253   0.9497   1.8208   2.3096
     2.4039

          k = 0.0000 0.2887 0.0000 ( 19227 PWs)   bands (ev):

   -47.8292 -47.1567 -46.8845  -6.1563  -6.0026  -5.9604  -5.9335  -5.8339
    -5.7930  -5.3693  -5.3063  -5.2603  -5.2099  -5.0941  -4.9100  -4.8759
    -4.8278  -4.7406  -4.5079  -3.2336  -0.8620  -0.0453   1.2299   1.3858
     1.9335

          k = 0.0000 0.4330 0.0000 ( 19265 PWs)   bands (ev):

   -47.8292 -47.1567 -46.8845  -6.1200  -5.9689  -5.9048  -5.7609  -5.6356
    -5.6326  -5.3644  -5.3060  -5.2376  -5.2204  -5.1152  -4.9977  -4.9305
    -4.7866  -4.5230  -4.4256  -2.6331  -1.7544  -0.1366   0.4012   0.5070
     2.0180

          k = 0.0000-0.5774 0.0000 ( 19296 PWs)   bands (ev):

   -47.8292 -47.1567 -46.8846  -6.1151  -5.9491  -5.8842  -5.7243  -5.4832
    -5.4538  -5.4172  -5.3749  -5.3262  -5.2080  -5.1715  -5.0172  -4.9532
    -4.7799  -4.5274  -3.5657  -3.3329  -1.4492  -0.9842   0.2491   0.7272
     1.6573

          k = 0.1250-0.0722 0.0000 ( 19191 PWs)   bands (ev):

   -47.8292 -47.1568 -46.8845  -6.3186  -6.0688  -6.0390  -5.9926  -5.9552
    -5.9339  -5.3815  -5.3573  -5.3233  -5.1863  -5.1692  -4.8466  -4.8261
    -4.8096  -4.5890  -4.4925  -3.6983  -1.2253   0.9497   1.8208   2.3096
     2.4039

          k = 0.1250 0.0722 0.0000 ( 19191 PWs)   bands (ev):

   -47.8292 -47.1568 -46.8845  -6.3186  -6.0688  -6.0390  -5.9926  -5.9552
    -5.9339  -5.3815  -5.3573  -5.3233  -5.1863  -5.1692  -4.8466  -4.8260
    -4.8096  -4.5890  -4.4925  -3.6983  -1.2253   0.9497   1.8208   2.3096
     2.4039

          k = 0.1250 0.2165 0.0000 ( 19214 PWs)   bands (ev):

   -47.8292 -47.1567 -46.8845  -6.1663  -6.0412  -5.9694  -5.9521  -5.9295
    -5.8082  -5.3610  -5.3346  -5.2739  -5.2133  -5.1174  -4.9037  -4.8353
    -4.8214  -4.7178  -4.5125  -3.3809  -0.9460   0.6601   0.9158   1.3634
     2.6222

          k = 0.1250 0.3608 0.0000 ( 19244 PWs)   bands (ev):

   -47.8292 -47.1567 -46.8845  -6.0699  -5.9592  -5.9174  -5.8679  -5.7879
    -5.6162  -5.3488  -5.3027  -5.2610  -5.2277  -5.0502  -4.9709  -4.8797
    -4.8080  -4.7170  -4.4930  -2.8020  -1.1049  -0.2733   0.1102   1.2344
     1.8540

          k = 0.1250-0.6495 0.0000 ( 19267 PWs)   bands (ev):

   -47.8292 -47.1567 -46.8845  -6.0573  -5.9111  -5.8797  -5.7433  -5.6554
    -5.4626  -5.3997  -5.3176  -5.2717  -5.2233  -5.1387  -5.0100  -4.9358
    -4.8003  -4.6421  -3.8638  -2.7732  -1.7043  -0.6459  -0.0907   0.6927
     1.8428

          k = 0.1250-0.5052 0.0000 ( 19267 PWs)   bands (ev):

   -47.8292 -47.1567 -46.8845  -6.0573  -5.9111  -5.8797  -5.7433  -5.6554
    -5.4626  -5.3997  -5.3176  -5.2717  -5.2233  -5.1387  -5.0100  -4.9358
    -4.8003  -4.6421  -3.8638  -2.7732  -1.7043  -0.6459  -0.0907   0.6927
     1.8428

          k = 0.1250-0.3608 0.0000 ( 19244 PWs)   bands (ev):

   -47.8292 -47.1567 -46.8845  -6.0699  -5.9592  -5.9174  -5.8679  -5.7879
    -5.6162  -5.3488  -5.3027  -5.2610  -5.2277  -5.0502  -4.9709  -4.8797
    -4.8080  -4.7170  -4.4930  -2.8020  -1.1049  -0.2733   0.1102   1.2344
     1.8540

          k = 0.1250-0.2165 0.0000 ( 19214 PWs)   bands (ev):

   -47.8292 -47.1567 -46.8845  -6.1663  -6.0412  -5.9694  -5.9521  -5.9295
    -5.8082  -5.3610  -5.3346  -5.2739  -5.2133  -5.1174  -4.9037  -4.8353
    -4.8214  -4.7178  -4.5125  -3.3809  -0.9460   0.6601   0.9158   1.3634
     2.6222

          k = 0.2500-0.1443 0.0000 ( 19227 PWs)   bands (ev):

   -47.8292 -47.1567 -46.8845  -6.1563  -6.0026  -5.9604  -5.9335  -5.8339
    -5.7930  -5.3693  -5.3063  -5.2603  -5.2099  -5.0941  -4.9100  -4.8759
    -4.8278  -4.7406  -4.5079  -3.2336  -0.8620  -0.0453   1.2299   1.3858
     1.9335

          k = 0.2500 0.0000 0.0000 ( 19214 PWs)   bands (ev):

   -47.8292 -47.1567 -46.8845  -6.1663  -6.0412  -5.9694  -5.9521  -5.9295
    -5.8082  -5.3610  -5.3346  -5.2739  -5.2133  -5.1174  -4.9037  -4.8353
    -4.8214  -4.7178  -4.5125  -3.3809  -0.9460   0.6601   0.9158   1.3634
     2.6222

          k = 0.2500 0.1443 0.0000 ( 19227 PWs)   bands (ev):

   -47.8292 -47.1567 -46.8845  -6.1563  -6.0026  -5.9604  -5.9335  -5.8339
    -5.7930  -5.3693  -5.3063  -5.2603  -5.2099  -5.0941  -4.9100  -4.8759
    -4.8278  -4.7406  -4.5079  -3.2336  -0.8620  -0.0453   1.2299   1.3858
     1.9335

          k = 0.2500 0.2887 0.0000 ( 19244 PWs)   bands (ev):

   -47.8292 -47.1567 -46.8845  -6.0699  -5.9592  -5.9174  -5.8679  -5.7879
    -5.6162  -5.3488  -5.3027  -5.2610  -5.2277  -5.0502  -4.9709  -4.8797
    -4.8080  -4.7170  -4.4930  -2.8020  -1.1049  -0.2733   0.1102   1.2344
     1.8540

          k = 0.2500-0.7217 0.0000 ( 19252 PWs)   bands (ev):

   -47.8291 -47.1566 -46.8845  -5.9296  -5.9031  -5.8510  -5.8276  -5.7633
    -5.4584  -5.3962  -5.2848  -5.2779  -5.2324  -5.0633  -5.0264  -4.8753
    -4.8504  -4.7715  -3.9734  -2.2929  -1.8244  -0.9909   0.2783   0.7425
     1.2183

          k = 0.2500-0.5774 0.0000 ( 19252 PWs)   bands (ev):

   -47.8291 -47.1566 -46.8844  -5.9037  -5.8584  -5.8099  -5.7604  -5.6899
    -5.6409  -5.3043  -5.2614  -5.2341  -5.2079  -5.1470  -5.0143  -4.9232
    -4.8550  -4.8315  -3.1014  -2.9770  -2.0232  -0.6593  -0.3221   0.5559
     1.4802

          k = 0.2500-0.4330 0.0000 ( 19252 PWs)   bands (ev):

   -47.8291 -47.1566 -46.8845  -5.9296  -5.9031  -5.8510  -5.8276  -5.7633
    -5.4584  -5.3962  -5.2848  -5.2779  -5.2324  -5.0633  -5.0264  -4.8753
    -4.8504  -4.7715  -3.9734  -2.2929  -1.8244  -0.9909   0.2783   0.7425
     1.2183

          k = 0.2500-0.2887 0.0000 ( 19244 PWs)   bands (ev):

   -47.8292 -47.1567 -46.8845  -6.0699  -5.9592  -5.9174  -5.8679  -5.7879
    -5.6162  -5.3488  -5.3027  -5.2610  -5.2277  -5.0502  -4.9709  -4.8797
    -4.8080  -4.7170  -4.4930  -2.8020  -1.1049  -0.2733   0.1102   1.2344
     1.8540

          k = 0.3750-0.2165 0.0000 ( 19265 PWs)   bands (ev):

   -47.8292 -47.1567 -46.8845  -6.1200  -5.9689  -5.9048  -5.7609  -5.6356
    -5.6326  -5.3644  -5.3060  -5.2376  -5.2204  -5.1152  -4.9977  -4.9305
    -4.7866  -4.5230  -4.4256  -2.6331  -1.7544  -0.1366   0.4012   0.5070
     2.0180

          k = 0.3750-0.0722 0.0000 ( 19244 PWs)   bands (ev):

   -47.8292 -47.1567 -46.8845  -6.0699  -5.9592  -5.9174  -5.8679  -5.7879
    -5.6162  -5.3488  -5.3027  -5.2610  -5.2277  -5.0502  -4.9709  -4.8797
    -4.8080  -4.7170  -4.4930  -2.8020  -1.1049  -0.2733   0.1102   1.2344
     1.8540

          k = 0.3750 0.0722 0.0000 ( 19244 PWs)   bands (ev):

   -47.8292 -47.1567 -46.8845  -6.0699  -5.9592  -5.9174  -5.8679  -5.7879
    -5.6162  -5.3488  -5.3027  -5.2610  -5.2277  -5.0502  -4.9709  -4.8797
    -4.8080  -4.7170  -4.4930  -2.8020  -1.1049  -0.2733   0.1102   1.2344
     1.8540

          k = 0.3750 0.2165 0.0000 ( 19265 PWs)   bands (ev):

   -47.8292 -47.1567 -46.8845  -6.1200  -5.9689  -5.9048  -5.7609  -5.6356
    -5.6326  -5.3644  -5.3060  -5.2376  -5.2204  -5.1152  -4.9977  -4.9305
    -4.7866  -4.5230  -4.4256  -2.6331  -1.7544  -0.1366   0.4012   0.5070
     2.0180

          k = 0.3750-0.7939 0.0000 ( 19267 PWs)   bands (ev):

   -47.8292 -47.1567 -46.8845  -6.0573  -5.9111  -5.8797  -5.7433  -5.6554
    -5.4626  -5.3997  -5.3176  -5.2717  -5.2233  -5.1387  -5.0100  -4.9358
    -4.8003  -4.6421  -3.8638  -2.7732  -1.7043  -0.6459  -0.0907   0.6927
     1.8428

          k = 0.3750-0.6495 0.0000 ( 19252 PWs)   bands (ev):

   -47.8291 -47.1566 -46.8844  -5.9037  -5.8584  -5.8099  -5.7604  -5.6899
    -5.6409  -5.3043  -5.2614  -5.2341  -5.2079  -5.1470  -5.0143  -4.9232
    -4.8550  -4.8315  -3.1014  -2.9770  -2.0232  -0.6593  -0.3221   0.5559
     1.4802

          k = 0.3750-0.5052 0.0000 ( 19252 PWs)   bands (ev):

   -47.8291 -47.1566 -46.8844  -5.9037  -5.8584  -5.8099  -5.7604  -5.6899
    -5.6409  -5.3043  -5.2614  -5.2341  -5.2079  -5.1470  -5.0143  -4.9232
    -4.8550  -4.8315  -3.1014  -2.9770  -2.0232  -0.6593  -0.3221   0.5559
     1.4802

          k = 0.3750-0.3608 0.0000 ( 19267 PWs)   bands (ev):

   -47.8292 -47.1567 -46.8845  -6.0573  -5.9111  -5.8797  -5.7433  -5.6554
    -5.4626  -5.3997  -5.3176  -5.2717  -5.2233  -5.1387  -5.0100  -4.9358
    -4.8003  -4.6421  -3.8638  -2.7732  -1.7043  -0.6459  -0.0907   0.6927
     1.8428

          k =-0.5000 0.2887 0.0000 ( 19296 PWs)   bands (ev):

   -47.8292 -47.1567 -46.8846  -6.1151  -5.9491  -5.8842  -5.7243  -5.4832
    -5.4538  -5.4172  -5.3749  -5.3262  -5.2080  -5.1715  -5.0172  -4.9532
    -4.7799  -4.5274  -3.5657  -3.3329  -1.4492  -0.9842   0.2491   0.7272
     1.6573

          k =-0.5000 0.4330 0.0000 ( 19267 PWs)   bands (ev):

   -47.8292 -47.1567 -46.8845  -6.0573  -5.9111  -5.8797  -5.7433  -5.6554
    -5.4626  -5.3997  -5.3176  -5.2717  -5.2233  -5.1387  -5.0100  -4.9358
    -4.8003  -4.6421  -3.8638  -2.7732  -1.7043  -0.6459  -0.0907   0.6927
     1.8428

          k =-0.5000 0.5774 0.0000 ( 19252 PWs)   bands (ev):

   -47.8291 -47.1566 -46.8845  -5.9296  -5.9031  -5.8510  -5.8276  -5.7633
    -5.4584  -5.3962  -5.2848  -5.2779  -5.2324  -5.0633  -5.0264  -4.8753
    -4.8504  -4.7715  -3.9734  -2.2929  -1.8244  -0.9909   0.2783   0.7425
     1.2183

          k =-0.5000 0.7217 0.0000 ( 19267 PWs)   bands (ev):

   -47.8292 -47.1567 -46.8845  -6.0573  -5.9111  -5.8797  -5.7433  -5.6554
    -5.4626  -5.3997  -5.3176  -5.2717  -5.2233  -5.1387  -5.0100  -4.9358
    -4.8003  -4.6421  -3.8638  -2.7732  -1.7043  -0.6459  -0.0907   0.6927
     1.8428

          k =-0.5000-0.2887 0.0000 ( 19296 PWs)   bands (ev):

   -47.8292 -47.1567 -46.8846  -6.1151  -5.9491  -5.8842  -5.7243  -5.4832
    -5.4538  -5.4172  -5.3749  -5.3262  -5.2080  -5.1715  -5.0172  -4.9532
    -4.7799  -4.5274  -3.5657  -3.3329  -1.4492  -0.9842   0.2491   0.7272
     1.6573

     the Fermi energy is    -0.8937 ev

!    total energy              =    -297.42400175 Ry
     estimated scf accuracy    <          5.9E-09 Ry
     smearing contrib. (-TS)   =      -0.00149854 Ry
     internal energy E=F+TS    =    -297.42250321 Ry

     The total energy is F=E-TS. E is the sum of the following terms:
     one-electron contribution =   -1811.40282773 Ry
     hartree contribution      =     922.05647625 Ry
     xc contribution           =     -77.74561585 Ry
     ewald contribution        =     669.74242349 Ry
     DFT-D3 Dispersion         =      -0.07295937 Ry

[...]
     ethr =  1.80E-09,  avg # of iterations =  2.2

     negative rho (up, down):  2.190E-05 0.000E+00

     total cpu time spent up to now is       31.8 secs

     total energy              =    -297.42565076 Ry
     estimated scf accuracy    <       0.00000395 Ry

     iteration #  3     ecut=    55.00 Ry     beta= 0.30
     Davidson diagonalization with overlap
     ethr =  1.80E-09,  avg # of iterations =  2.0

     negative rho (up, down):  2.190E-05 0.000E+00

     total cpu time spent up to now is       32.0 secs

     total energy              =    -297.42565108 Ry
     estimated scf accuracy    <       0.00000001 Ry

     iteration #  4     ecut=    55.00 Ry     beta= 0.30
     Davidson diagonalization with overlap
     ethr =  3.42E-11,  avg # of iterations =  5.0

     negative rho (up, down):  2.189E-05 0.000E+00

     total cpu time spent up to now is       32.3 secs

     End of self-consistent calculation

          k = 0.0000 0.0000 0.0000 ( 19117 PWs)   bands (ev):

   -47.8094 -47.1359 -46.8305  -6.4631  -6.1213  -6.1213  -6.0132  -6.0132
    -5.9858  -5.4471  -5.4471  -5.4349  -5.1951  -5.1951  -4.8280  -4.7999
    -4.7999  -4.4722  -4.4722  -3.8350  -1.3145   0.8918   2.2711   2.9073
     2.9624

          k = 0.0000 0.1443 0.0000 ( 19191 PWs)   bands (ev):

   -47.8095 -47.1360 -46.8306  -6.3637  -6.1055  -6.0786  -6.0118  -5.9778
    -5.9304  -5.4465  -5.4154  -5.3914  -5.2087  -5.1902  -4.8593  -4.8257
    -4.8013  -4.5745  -4.4794  -3.6649  -1.1600   1.0240   1.8385   2.3296
     2.4361

          k = 0.0000 0.2887 0.0000 ( 19227 PWs)   bands (ev):

   -47.8095 -47.1360 -46.8306  -6.1985  -6.0261  -5.9982  -5.9673  -5.8483
    -5.7900  -5.4298  -5.3410  -5.2907  -5.2394  -5.1258  -4.9507  -4.9008
    -4.8187  -4.7318  -4.4972  -3.2064  -0.7932  -0.0373   1.2362   1.4545
     1.9272

          k = 0.0000 0.4330 0.0000 ( 19265 PWs)   bands (ev):

   -47.8095 -47.1360 -46.8306  -6.1546  -5.9802  -5.9362  -5.7954  -5.6390
    -5.6358  -5.4205  -5.3100  -5.2508  -5.2322  -5.1578  -5.0518  -5.0030
    -4.7867  -4.5123  -4.4364  -2.6163  -1.7456  -0.1214   0.4668   0.5024
     2.0747

          k = 0.0000-0.5774 0.0000 ( 19296 PWs)   bands (ev):

   -47.8096 -47.1360 -46.8307  -6.1483  -5.9593  -5.9119  -5.7308  -5.5055
    -5.4586  -5.4250  -5.3962  -5.3403  -5.2379  -5.1808  -5.1058  -5.0542
    -4.7749  -4.5157  -3.5873  -3.3218  -1.4318  -0.9935   0.2398   0.8294
     1.7277

          k = 0.1250-0.0722 0.0000 ( 19191 PWs)   bands (ev):

   -47.8095 -47.1360 -46.8306  -6.3637  -6.1055  -6.0786  -6.0118  -5.9778
    -5.9304  -5.4465  -5.4154  -5.3914  -5.2087  -5.1902  -4.8593  -4.8257
    -4.8013  -4.5745  -4.4794  -3.6649  -1.1600   1.0240   1.8385   2.3296
     2.4361

          k = 0.1250 0.0722 0.0000 ( 19191 PWs)   bands (ev):

   -47.8095 -47.1360 -46.8306  -6.3637  -6.1055  -6.0786  -6.0118  -5.9778
    -5.9304  -5.4465  -5.4154  -5.3914  -5.2087  -5.1902  -4.8593  -4.8257
    -4.8013  -4.5744  -4.4794  -3.6649  -1.1600   1.0240   1.8385   2.3296
     2.4361

          k = 0.1250 0.2165 0.0000 ( 19214 PWs)   bands (ev):

   -47.8095 -47.1360 -46.8306  -6.2144  -6.0745  -6.0016  -5.9785  -5.9414
    -5.8086  -5.4121  -5.3922  -5.3153  -5.2413  -5.1413  -4.9443  -4.8349
    -4.8209  -4.7058  -4.5026  -3.3520  -0.8759   0.6782   0.9285   1.4163
     2.6472

          k = 0.1250 0.3608 0.0000 ( 19244 PWs)   bands (ev):

   -47.8095 -47.1359 -46.8306  -6.1078  -5.9880  -5.9317  -5.9021  -5.8036
    -5.6174  -5.3906  -5.3278  -5.2978  -5.2366  -5.0995  -5.0200  -4.8955
    -4.8219  -4.7238  -4.4865  -2.7803  -1.0835  -0.2279   0.1037   1.2685
     1.9022

          k = 0.1250-0.6495 0.0000 ( 19267 PWs)   bands (ev):

   -47.8095 -47.1359 -46.8306  -6.0903  -5.9272  -5.9011  -5.7634  -5.6593
    -5.4741  -5.4020  -5.3542  -5.3047  -5.2314  -5.1610  -5.0940  -5.0051
    -4.8054  -4.6401  -3.8709  -2.7705  -1.6927  -0.6589  -0.0884   0.7870
     1.8764

          k = 0.1250-0.5052 0.0000 ( 19267 PWs)   bands (ev):

   -47.8095 -47.1359 -46.8306  -6.0903  -5.9272  -5.9011  -5.7634  -5.6593
    -5.4741  -5.4020  -5.3542  -5.3047  -5.2314  -5.1610  -5.0940  -5.0051
    -4.8054  -4.6401  -3.8709  -2.7705  -1.6927  -0.6589  -0.0884   0.7870
     1.8764

          k = 0.1250-0.3608 0.0000 ( 19244 PWs)   bands (ev):

   -47.8095 -47.1359 -46.8306  -6.1078  -5.9880  -5.9317  -5.9022  -5.8036
    -5.6174  -5.3906  -5.3278  -5.2978  -5.2367  -5.0995  -5.0200  -4.8955
    -4.8219  -4.7238  -4.4865  -2.7804  -1.0834  -0.2279   0.1037   1.2685
     1.9022

          k = 0.1250-0.2165 0.0000 ( 19214 PWs)   bands (ev):

   -47.8095 -47.1360 -46.8306  -6.2144  -6.0745  -6.0016  -5.9785  -5.9414
    -5.8086  -5.4121  -5.3922  -5.3153  -5.2413  -5.1413  -4.9443  -4.8349
    -4.8209  -4.7058  -4.5026  -3.3520  -0.8759   0.6782   0.9285   1.4163
     2.6472

          k = 0.2500-0.1443 0.0000 ( 19227 PWs)   bands (ev):

   -47.8095 -47.1360 -46.8306  -6.1985  -6.0261  -5.9982  -5.9673  -5.8483
    -5.7900  -5.4298  -5.3410  -5.2907  -5.2394  -5.1258  -4.9507  -4.9008
    -4.8187  -4.7318  -4.4972  -3.2064  -0.7932  -0.0373   1.2362   1.4545
     1.9272

          k = 0.2500 0.0000 0.0000 ( 19214 PWs)   bands (ev):

   -47.8095 -47.1360 -46.8306  -6.2144  -6.0745  -6.0016  -5.9785  -5.9414
    -5.8086  -5.4121  -5.3922  -5.3153  -5.2413  -5.1413  -4.9443  -4.8349
    -4.8209  -4.7058  -4.5026  -3.3520  -0.8759   0.6782   0.9285   1.4163
     2.6472

          k = 0.2500 0.1443 0.0000 ( 19227 PWs)   bands (ev):

   -47.8095 -47.1360 -46.8306  -6.1985  -6.0261  -5.9982  -5.9673  -5.8483
    -5.7900  -5.4298  -5.3410  -5.2907  -5.2394  -5.1258  -4.9507  -4.9008
    -4.8187  -4.7318  -4.4972  -3.2064  -0.7932  -0.0373   1.2362   1.4545
     1.9272

          k = 0.2500 0.2887 0.0000 ( 19244 PWs)   bands (ev):

   -47.8095 -47.1359 -46.8306  -6.1078  -5.9880  -5.9317  -5.9022  -5.8036
    -5.6174  -5.3906  -5.3278  -5.2978  -5.2366  -5.0995  -5.0200  -4.8955
    -4.8219  -4.7238  -4.4865  -2.7803  -1.0835  -0.2279   0.1037   1.2685
     1.9022

          k = 0.2500-0.7217 0.0000 ( 19252 PWs)   bands (ev):

   -47.8095 -47.1359 -46.8306  -5.9661  -5.9291  -5.8772  -5.8349  -5.7709
    -5.4597  -5.3963  -5.3390  -5.2981  -5.2460  -5.1207  -5.0828  -4.9090
    -4.8592  -4.7888  -3.9783  -2.2816  -1.8206  -0.9997   0.2952   0.7607
     1.2840

          k = 0.2500-0.5774 0.0000 ( 19252 PWs)   bands (ev):

   -47.8094 -47.1358 -46.8305  -5.9348  -5.8775  -5.8267  -5.7840  -5.6954
    -5.6457  -5.3148  -5.2823  -5.2488  -5.2295  -5.1745  -5.0870  -4.9824
    -4.8968  -4.8271  -3.0843  -2.9964  -2.0344  -0.6580  -0.3235   0.5568
     1.5939

          k = 0.2500-0.4330 0.0000 ( 19252 PWs)   bands (ev):

   -47.8095 -47.1359 -46.8306  -5.9661  -5.9291  -5.8772  -5.8349  -5.7709
    -5.4597  -5.3963  -5.3390  -5.2981  -5.2460  -5.1207  -5.0828  -4.9090
    -4.8592  -4.7888  -3.9783  -2.2816  -1.8206  -0.9997   0.2952   0.7607
     1.2840

          k = 0.2500-0.2887 0.0000 ( 19244 PWs)   bands (ev):

   -47.8095 -47.1359 -46.8306  -6.1078  -5.9880  -5.9317  -5.9022  -5.8036
    -5.6174  -5.3906  -5.3278  -5.2978  -5.2367  -5.0995  -5.0200  -4.8955
    -4.8219  -4.7238  -4.4865  -2.7804  -1.0834  -0.2279   0.1037   1.2685
     1.9022

          k = 0.3750-0.2165 0.0000 ( 19265 PWs)   bands (ev):

   -47.8095 -47.1360 -46.8306  -6.1546  -5.9802  -5.9362  -5.7954  -5.6390
    -5.6358  -5.4205  -5.3100  -5.2508  -5.2322  -5.1578  -5.0518  -5.0030
    -4.7867  -4.5123  -4.4364  -2.6163  -1.7456  -0.1214   0.4668   0.5024
     2.0747

          k = 0.3750-0.0722 0.0000 ( 19244 PWs)   bands (ev):

   -47.8095 -47.1359 -46.8306  -6.1078  -5.9880  -5.9317  -5.9021  -5.8036
    -5.6174  -5.3906  -5.3278  -5.2978  -5.2366  -5.0995  -5.0200  -4.8955
    -4.8219  -4.7238  -4.4865  -2.7804  -1.0835  -0.2279   0.1037   1.2685
     1.9022

          k = 0.3750 0.0722 0.0000 ( 19244 PWs)   bands (ev):

   -47.8095 -47.1359 -46.8306  -6.1078  -5.9880  -5.9317  -5.9022  -5.8036
    -5.6174  -5.3906  -5.3278  -5.2978  -5.2367  -5.0995  -5.0200  -4.8955
    -4.8219  -4.7238  -4.4865  -2.7803  -1.0835  -0.2279   0.1037   1.2685
     1.9022

          k = 0.3750 0.2165 0.0000 ( 19265 PWs)   bands (ev):

   -47.8095 -47.1360 -46.8306  -6.1546  -5.9802  -5.9362  -5.7955  -5.6390
    -5.6358  -5.4205  -5.3100  -5.2508  -5.2322  -5.1578  -5.0518  -5.0030
    -4.7867  -4.5124  -4.4364  -2.6163  -1.7456  -0.1214   0.4667   0.5024
     2.0747

          k = 0.3750-0.7939 0.0000 ( 19267 PWs)   bands (ev):

   -47.8095 -47.1359 -46.8306  -6.0903  -5.9272  -5.9011  -5.7634  -5.6593
    -5.4741  -5.4020  -5.3542  -5.3047  -5.2314  -5.1610  -5.0940  -5.0051
    -4.8054  -4.6401  -3.8709  -2.7705  -1.6927  -0.6589  -0.0884   0.7870
     1.8764

          k = 0.3750-0.6495 0.0000 ( 19252 PWs)   bands (ev):

   -47.8094 -47.1358 -46.8305  -5.9348  -5.8775  -5.8267  -5.7840  -5.6954
    -5.6457  -5.3148  -5.2823  -5.2488  -5.2295  -5.1745  -5.0870  -4.9824
    -4.8968  -4.8271  -3.0843  -2.9964  -2.0344  -0.6580  -0.3235   0.5568
     1.5939

          k = 0.3750-0.5052 0.0000 ( 19252 PWs)   bands (ev):

   -47.8094 -47.1358 -46.8305  -5.9348  -5.8775  -5.8267  -5.7840  -5.6954
    -5.6457  -5.3148  -5.2823  -5.2488  -5.2295  -5.1745  -5.0870  -4.9824
    -4.8968  -4.8271  -3.0843  -2.9965  -2.0344  -0.6580  -0.3235   0.5568
     1.5939

          k = 0.3750-0.3608 0.0000 ( 19267 PWs)   bands (ev):

   -47.8095 -47.1359 -46.8306  -6.0903  -5.9272  -5.9011  -5.7634  -5.6593
    -5.4741  -5.4020  -5.3542  -5.3047  -5.2314  -5.1610  -5.0940  -5.0051
    -4.8054  -4.6401  -3.8709  -2.7705  -1.6927  -0.6589  -0.0884   0.7870
     1.8764

          k =-0.5000 0.2887 0.0000 ( 19296 PWs)   bands (ev):

   -47.8096 -47.1360 -46.8307  -6.1483  -5.9593  -5.9119  -5.7308  -5.5055
    -5.4586  -5.4250  -5.3962  -5.3403  -5.2379  -5.1808  -5.1058  -5.0542
    -4.7749  -4.5157  -3.5873  -3.3218  -1.4318  -0.9935   0.2398   0.8294
     1.7277

          k =-0.5000 0.4330 0.0000 ( 19267 PWs)   bands (ev):

   -47.8095 -47.1359 -46.8306  -6.0903  -5.9272  -5.9011  -5.7634  -5.6593
    -5.4741  -5.4020  -5.3542  -5.3047  -5.2314  -5.1610  -5.0940  -5.0051
    -4.8054  -4.6401  -3.8709  -2.7705  -1.6927  -0.6589  -0.0884   0.7870
     1.8764

          k =-0.5000 0.5774 0.0000 ( 19252 PWs)   bands (ev):

   -47.8095 -47.1359 -46.8306  -5.9661  -5.9291  -5.8772  -5.8349  -5.7709
    -5.4597  -5.3963  -5.3390  -5.2981  -5.2460  -5.1207  -5.0828  -4.9090
    -4.8592  -4.7888  -3.9783  -2.2816  -1.8206  -0.9997   0.2952   0.7607
     1.2840

          k =-0.5000 0.7217 0.0000 ( 19267 PWs)   bands (ev):

   -47.8095 -47.1359 -46.8306  -6.0903  -5.9272  -5.9011  -5.7634  -5.6593
    -5.4741  -5.4020  -5.3542  -5.3047  -5.2314  -5.1610  -5.0940  -5.0051
    -4.8054  -4.6401  -3.8709  -2.7705  -1.6927  -0.6589  -0.0884   0.7870
     1.8764

          k =-0.5000-0.2887 0.0000 ( 19296 PWs)   bands (ev):

   -47.8096 -47.1360 -46.8307  -6.1483  -5.9593  -5.9119  -5.7308  -5.5055
    -5.4586  -5.4250  -5.3962  -5.3403  -5.2379  -5.1808  -5.1058  -5.0542
    -4.7749  -4.5158  -3.5873  -3.3218  -1.4318  -0.9935   0.2398   0.8294
     1.7277

     the Fermi energy is    -0.8691 ev

!    total energy              =    -297.42565108 Ry
     estimated scf accuracy    <          4.9E-09 Ry
     smearing contrib. (-TS)   =      -0.00179625 Ry
     internal energy E=F+TS    =    -297.42385483 Ry

     The total energy is F=E-TS. E is the sum of the following terms:
     one-electron contribution =   -1834.88164020 Ry
     hartree contribution      =     933.79455296 Ry
     xc contribution           =     -77.76657358 Ry
     ewald contribution        =     681.50325090 Ry
     DFT-D3 Dispersion         =      -0.07344490 Ry

     convergence has been achieved in   4 iterations

     negative rho (up, down):  2.189E-05 0.000E+00

     Forces acting on atoms (cartesian axes, Ry/au):

     atom    1 type  1   force =    -0.00000110   -0.00000057   -0.00005099
     atom    2 type  1   force =     0.00000062    0.00000032    0.00591898
     atom    3 type  1   force =    -0.00000003    0.00000014    0.01156585
     atom    4 type  2   force =     0.00000036    0.00000007   -0.00015450
     atom    5 type  2   force =     0.00000012    0.00000002   -0.01029395
     atom    6 type  2   force =     0.00000004    0.00000002   -0.00698540
     The non-local contrib.  to forces
     atom    1 type  1   force =    -0.00000079   -0.00000050    0.14329593
     atom    2 type  1   force =     0.00000099    0.00000039    0.03218239
     atom    3 type  1   force =    -0.00000040    0.00000001   -0.01605336
     atom    4 type  2   force =     0.00000017    0.00000003    0.01732554
     atom    5 type  2   force =     0.00000001   -0.00000001   -0.01406386
     atom    6 type  2   force =     0.00000003    0.00000002   -0.06016117
     The ionic contribution  to forces
     atom    1 type  1   force =    -0.00007838   -0.00002903   48.91659008
     atom    2 type  1   force =     0.00007611    0.00002965    6.21503895
     atom    3 type  1   force =     0.00000085    0.00000016  -41.89715186
     atom    4 type  2   force =     0.00001199    0.00000318    9.29669404
     atom    5 type  2   force =    -0.00001095   -0.00000410   -6.13058220
     atom    6 type  2   force =     0.00000038    0.00000015  -16.40058901
     The local contribution  to forces
     atom    1 type  1   force =     0.00007752    0.00002881  -49.05007460
     atom    2 type  1   force =    -0.00007597   -0.00002961   -6.23900251
     atom    3 type  1   force =    -0.00000066   -0.00000004   41.92134742
     atom    4 type  2   force =    -0.00001182   -0.00000316   -9.31345110
     atom    5 type  2   force =     0.00001102    0.00000419    6.13377549
     atom    6 type  2   force =    -0.00000039   -0.00000021   16.45220796
     The core correction contribution to forces
     atom    1 type  1   force =     0.00000018    0.00000007   -0.00735448
     atom    2 type  1   force =    -0.00000016   -0.00000006   -0.00237617
     atom    3 type  1   force =    -0.00000000    0.00000000    0.00213422
     atom    4 type  2   force =     0.00000000    0.00000000    0.00000000
     atom    5 type  2   force =     0.00000000    0.00000000    0.00000000
     atom    6 type  2   force =     0.00000000    0.00000000    0.00000000
     The Hubbard contrib.    to forces
     atom    1 type  1   force =     0.00000000    0.00000000    0.00000000
     atom    2 type  1   force =     0.00000000    0.00000000    0.00000000
     atom    3 type  1   force =     0.00000000    0.00000000    0.00000000
     atom    4 type  2   force =     0.00000000    0.00000000    0.00000000
     atom    5 type  2   force =     0.00000000    0.00000000    0.00000000
     atom    6 type  2   force =     0.00000000    0.00000000    0.00000000
     The SCF correction term to forces
     atom    1 type  1   force =     0.00000024    0.00000005    0.00006835
     atom    2 type  1   force =    -0.00000000   -0.00000000    0.00000000
     atom    3 type  1   force =     0.00000000    0.00000000    0.00000000
     atom    4 type  2   force =    -0.00000000    0.00000001    0.00002252
     atom    5 type  2   force =     0.00000000   -0.00000000    0.00000000
     atom    6 type  2   force =    -0.00000000    0.00000000   -0.00000000

     DFT-D3 dispersion contribution to forces:
     atom    1 type  1   force =     0.00000011    0.00000004   -0.00256700
     atom    2 type  1   force =    -0.00000010   -0.00000004   -0.00004360
     atom    3 type  1   force =    -0.00000000   -0.00000000    0.00119489
     atom    4 type  2   force =     0.00000001    0.00000000   -0.00073622
     atom    5 type  2   force =    -0.00000001   -0.00000000    0.00057745
     atom    6 type  2   force =     0.00000000    0.00000000    0.00157447

     Total force =     0.000163     Total SCF correction =     0.000072
     SCF correction compared to forces is large: reduce conv_thr to get better values


     Computing stress (Cartesian axis) and pressure


     negative rho (up, down):  2.189E-05 0.000E+00
          total   stress  (Ry/bohr**3)                   (kbar)     P=       -5.55
  -0.00004467  -0.00000000  -0.00000000           -6.57       -0.00       -0.00
  -0.00000000  -0.00004467  -0.00000000           -0.00       -6.57       -0.00
  -0.00000000  -0.00000000  -0.00002381           -0.00       -0.00       -3.50

     Energy error            =      2.1E-07 Ry
     Gradient error          =      1.5E-04 Ry/Bohr

     bfgs converged in   9 scf cycles and   8 bfgs steps
     (criteria: energy <  1.0E-04 Ry, force <  1.0E-03 Ry/Bohr)

     End of BFGS Geometry Optimization

     Final energy             =    -297.4256510773 Ry

     File ./LiAg_111/LiAg_111.bfgs deleted, as requested
Begin final coordinates

ATOMIC_POSITIONS (angstrom)
Ag            1.1040768230        0.6374348468       14.3470122876
Ag            3.3121662948        1.9122801019       12.7043724552    0   0   0
Ag            5.5202771581        3.1871335032       10.9014574851    0   0   0
Li            5.5202861772        3.1871373484       13.6634511197
Li            1.1040554316        0.6374267006       11.8029149701    0   0   0
Li            3.3121662948        1.9122801019       10.0000000000    0   0   0
End final coordinates



     Writing all to output data dir ./LiAg_111/LiAg_111.save/

     init_run     :      5.85s CPU      6.34s WALL (       1 calls)
     electrons    :     14.26s CPU     17.66s WALL (       9 calls)
     update_pot   :      1.89s CPU      1.99s WALL (       8 calls)
     forces       :      1.61s CPU      1.85s WALL (       9 calls)
     force_dftd3  :      0.06s CPU      0.14s WALL (       9 calls)
     stress       :      4.36s CPU      4.51s WALL (       9 calls)
     stres_dftd3  :      0.06s CPU      0.09s WALL (       9 calls)

     Called by init_run:
     wfcinit      :      0.22s CPU      0.52s WALL (       1 calls)
     potinit      :      0.91s CPU      0.93s WALL (       1 calls)
     hinit0       :      4.60s CPU      4.76s WALL (       1 calls)

     Called by electrons:
     c_bands      :     10.81s CPU     12.25s WALL (      60 calls)
     sum_band     :      2.18s CPU      2.68s WALL (      60 calls)
     v_of_rho     :      0.62s CPU      0.86s WALL (      64 calls)
     newd         :      0.39s CPU      0.44s WALL (      64 calls)
     mix_rho      :      0.06s CPU      0.07s WALL (      60 calls)
     energy_dftd3 :      0.01s CPU      0.01s WALL (       9 calls)

     Called by c_bands:
     init_us_2    :      0.11s CPU      0.12s WALL (    1251 calls)
     init_us_2:cp :      0.11s CPU      0.12s WALL (    1251 calls)
     cegterg      :     10.15s CPU     10.89s WALL (     540 calls)

     Called by *egterg:
     cdiaghg      :      2.02s CPU      2.07s WALL (    2246 calls)
     h_psi        :      7.11s CPU      7.89s WALL (    2372 calls)
     s_psi        :      0.21s CPU      0.22s WALL (    2372 calls)
     g_psi        :      0.03s CPU      0.03s WALL (    1823 calls)

     Called by h_psi:
     h_psi:calbec :      0.56s CPU      0.75s WALL (    2372 calls)
     vloc_psi     :      6.31s CPU      6.89s WALL (    2372 calls)
     add_vuspsi   :      0.22s CPU      0.23s WALL (    2372 calls)

     General routines
     calbec       :      0.88s CPU      1.12s WALL (    3317 calls)
     fft          :      5.38s CPU      5.78s WALL (    1052 calls)
     ffts         :      0.93s CPU      1.50s WALL (     124 calls)
     fftw         :      6.63s CPU      7.23s WALL (   86922 calls)
     interpolate  :      0.87s CPU      1.26s WALL (      64 calls)

     Parallel routines

     PWSCF        :     28.41s CPU     33.82s WALL


   This run was terminated on:  12:26:44   4Aug2025            

=------------------------------------------------------------------------------=
   JOB DONE.
=------------------------------------------------------------------------------=
