
     Program PWSCF v.7.2 starts on  6Aug2025 at  7:27:17 

     This program is part of the open-source Quantum ESPRESSO suite
     for quantum simulation of materials; please cite
         "P. Giannozzi et al., J. Phys.:Condens. Matter 21 395502 (2009);
         "P. Giannozzi et al., J. Phys.:Condens. Matter 29 465901 (2017);
         "P. Giannozzi et al., J. Chem. Phys. 152 154105 (2020);
          URL http://www.quantum-espresso.org", 
     in publications or presentations arising from this work. More details at
     http://www.quantum-espresso.org/quote

     Parallel version (MPI & OpenMP), running on     256 processor cores
     Number of MPI processes:               256
     Threads/MPI process:                     1

     MPI processes distributed on     4 nodes
     241142 MiB available memory on the printing compute node when the environment starts

     Reading input from LiAg_mp-2426_110_ontop_1.in

     Current dimensions of program PWSCF are:
     Max number of different atomic species (ntypx) = 10
     Max number of k-points (npk) =  40000
     Max angular momentum in pseudopotentials (lmaxx) =  4
     Message from routine iosys:
     restart disabled: needed files not found

     K-points division:     npool     =       4
     R & G space division:  proc/nbgrp/npool/nimage =      64
     Subspace diagonalization in iterative solution of the eigenvalue problem:
     a serial algorithm will be used


     Parallelization info
     --------------------
     sticks:   dense  smooth     PW     G-vecs:    dense   smooth      PW
     Min          30      13      4                 8502     2473     376
     Max          31      14      5                 8541     2518     416
     Sum        1961     865    259               545233   159021   25681

     Using Slab Decomposition



     bravais-lattice index     =            0
     lattice parameter (alat)  =       5.9011  a.u.
     unit-cell volume          =    2888.7690 (a.u.)^3
     number of atoms/cell      =           13
     number of atomic types    =            2
     number of electrons       =        87.00
     number of Kohn-Sham states=           53
     kinetic-energy cutoff     =      55.0000  Ry
     charge density cutoff     =     500.0000  Ry
     scf convergence threshold =      1.0E-06
     mixing beta               =       0.3000
     number of iterations used =            8  plain     mixing
     energy convergence thresh.=      1.0E-04
     force convergence thresh. =      1.0E-03
     Exchange-correlation= PBE
                           (   1   4   3   4   0   0   0)
     nstep                     =          500


     celldm(1)=   5.901124  celldm(2)=   0.000000  celldm(3)=   0.000000
     celldm(4)=   0.000000  celldm(5)=   0.000000  celldm(6)=   0.000000

     crystal axes: (cart. coord. in units of alat)
               a(1) = (   1.000000   0.000000   0.000000 )  
               a(2) = (   0.000000   1.414214  -0.000000 )  
               a(3) = (   0.000000   0.000000   9.940165 )  

     reciprocal axes: (cart. coord. in units 2 pi/alat)
               b(1) = (  1.000000 -0.000000  0.000000 )  
               b(2) = (  0.000000  0.707107  0.000000 )  
               b(3) = ( -0.000000  0.000000  0.100602 )  


     PseudoPot. # 1 for Ag read from file:
     /home/ecastro/trabajo_final/pseudos/Ag.pbe-n-rrkjus_psl.1.0.0.UPF
     MD5 check sum: 81cdf87bacf708300839c66ee23ce017
     Pseudo is Ultrasoft + core correction, Zval = 11.0
     Generated using &quot;atomic&quot; code by A. Dal Corso  v.6.2.2
     Using radial grid of 1237 points,  6 beta functions with: 
                l(1) =   0
                l(2) =   0
                l(3) =   1
                l(4) =   1
                l(5) =   2
                l(6) =   2
     Q(r) pseudized with 0 coefficients 


     PseudoPot. # 2 for Li read from file:
     /home/ecastro/trabajo_final/pseudos/Li.pbe-s-rrkjus_psl.1.0.0.UPF
     MD5 check sum: 9f98d2529904d60b716d33989e9bc179
     Pseudo is Ultrasoft, Zval =  3.0
     Generated using &quot;atomic&quot; code by A. Dal Corso  v.6.3MaX
     Using radial grid of 1017 points,  4 beta functions with: 
                l(1) =   0
                l(2) =   0
                l(3) =   1
                l(4) =   1
     Q(r) pseudized with 0 coefficients 


     atomic species   valence    mass     pseudopotential
        Ag            11.00   107.86820     Ag( 1.00)
        Li             3.00     6.94100     Li( 1.00)

     No symmetry found



   Cartesian axes

     site n.     atom                  positions (alat units)
         1           Ag  tau(   1) = (   0.2499994   0.3535541   6.6750602  )
         2           Ag  tau(   2) = (   0.2499991   1.0606601   6.0303046  )
         3           Ag  tau(   3) = (   0.2500000   0.3535534   5.3236359  )
         4           Ag  tau(   4) = (   0.2500000   1.0606602   4.6165291  )
         5           Ag  tau(   5) = (   0.2500000   0.3535534   3.9094224  )
         6           Ag  tau(   6) = (   0.2500000   1.0606602   3.2023156  )
         7           Li  tau(   7) = (   0.7499996   1.0606612   6.7841830  )
         8           Li  tau(   8) = (   0.7499996   0.3535528   6.0076941  )
         9           Li  tau(   9) = (   0.7500000   1.0606602   5.3236359  )
        10           Li  tau(  10) = (   0.7500000   0.3535534   4.6165291  )
        11           Li  tau(  11) = (   0.7500000   1.0606602   3.9094224  )
        12           Li  tau(  12) = (   0.7500000   0.3535534   3.2023156  )
        13           Li  tau(  13) = (   0.7499996   1.0606612   7.4246461  )

     --------------------------------------------
     DFT-D3 Dispersion Correction (no 3-body):
     --------------------------------------------
       Reference C6 values for interpolation: 

         atom   Coordination number   C6
         Li         0.000          2326.89
         Li         0.987           170.64
         Ag         0.000           853.49
         Ag         0.968           537.23

       Values used:

         atom   Coordination number  R0_AB[au]  C6      C8
         Ag         8.256            3.147    537.23  47741.54
         Ag        10.346            3.147    537.23  47741.54
         Ag        10.198            3.147    537.23  47741.54
         Ag        10.144            3.147    537.23  47741.54
         Ag        10.124            3.147    537.23  47741.54
         Ag         7.371            3.147    537.23  47741.54
         Li         8.698            3.303    170.64  12899.87
         Li        11.059            3.303    170.64  12899.87
         Li        11.350            3.303    170.64  12899.87
         Li        11.222            3.303    170.64  12899.87
         Li        11.194            3.303    170.64  12899.87
         Li         8.083            3.303    170.64  12899.87
         Li         2.958            3.303    170.64  12899.87

         Molecular C6 ( Ry / a.u.^6 ) =     52003.73


     number of k points=    34  Methfessel-Paxton smearing, width (Ry)=  0.0300
                       cart. coord. in units 2pi/alat
        k(    1) = (   0.0000000   0.0000000   0.0000000), wk =   0.0312500
        k(    2) = (   0.0000000   0.0883883   0.0000000), wk =   0.0625000
        k(    3) = (   0.0000000   0.1767767   0.0000000), wk =   0.0625000
        k(    4) = (   0.0000000   0.2651650   0.0000000), wk =   0.0625000
        k(    5) = (   0.0000000  -0.3535534   0.0000000), wk =   0.0312500
        k(    6) = (   0.1250000  -0.0000000   0.0000000), wk =   0.0625000
        k(    7) = (   0.1250000   0.0883883   0.0000000), wk =   0.0625000
        k(    8) = (   0.1250000   0.1767767   0.0000000), wk =   0.0625000
        k(    9) = (   0.1250000   0.2651650   0.0000000), wk =   0.0625000
        k(   10) = (   0.1250000  -0.3535534   0.0000000), wk =   0.0625000
        k(   11) = (   0.1250000  -0.2651650   0.0000000), wk =   0.0625000
        k(   12) = (   0.1250000  -0.1767767   0.0000000), wk =   0.0625000
        k(   13) = (   0.1250000  -0.0883883   0.0000000), wk =   0.0625000
        k(   14) = (   0.2500000  -0.0000000   0.0000000), wk =   0.0625000
        k(   15) = (   0.2500000   0.0883883   0.0000000), wk =   0.0625000
        k(   16) = (   0.2500000   0.1767767   0.0000000), wk =   0.0625000
        k(   17) = (   0.2500000   0.2651650   0.0000000), wk =   0.0625000
        k(   18) = (   0.2500000  -0.3535534   0.0000000), wk =   0.0625000
        k(   19) = (   0.2500000  -0.2651650   0.0000000), wk =   0.0625000
        k(   20) = (   0.2500000  -0.1767767   0.0000000), wk =   0.0625000
        k(   21) = (   0.2500000  -0.0883883   0.0000000), wk =   0.0625000
        k(   22) = (   0.3750000  -0.0000000   0.0000000), wk =   0.0625000
        k(   23) = (   0.3750000   0.0883883   0.0000000), wk =   0.0625000
        k(   24) = (   0.3750000   0.1767767   0.0000000), wk =   0.0625000
        k(   25) = (   0.3750000   0.2651650   0.0000000), wk =   0.0625000
        k(   26) = (   0.3750000  -0.3535534   0.0000000), wk =   0.0625000
        k(   27) = (   0.3750000  -0.2651650   0.0000000), wk =   0.0625000
        k(   28) = (   0.3750000  -0.1767767   0.0000000), wk =   0.0625000
        k(   29) = (   0.3750000  -0.0883883   0.0000000), wk =   0.0625000
        k(   30) = (  -0.5000000   0.0000000   0.0000000), wk =   0.0312500
        k(   31) = (  -0.5000000   0.0883883   0.0000000), wk =   0.0625000
        k(   32) = (  -0.5000000   0.1767767   0.0000000), wk =   0.0625000
        k(   33) = (  -0.5000000   0.2651650   0.0000000), wk =   0.0625000
        k(   34) = (  -0.5000000  -0.3535534   0.0000000), wk =   0.0312500

     Dense  grid:   545233 G-vectors     FFT dimensions: (  45,  60, 432)

     Smooth grid:   159021 G-vectors     FFT dimensions: (  27,  40, 288)

     Estimated max dynamical RAM per process >      18.66 MB

     Estimated total dynamical RAM >       4.28 GB
     Cannot read rho : file not found

     Initial potential from superposition of free atoms

     starting charge      86.9653, renormalised to      87.0000

     negative rho (up, down):  4.872E-05 0.000E+00
     Message from routine qexsd_readschema :
     xml data file ./LiAg_mp-2426_110_ontop_1/LiAg_mp-2426_110_ontop_1.save/data-file
     Cannot read wfcs: file not found
     Starting wfcs are   89 randomized atomic wfcs

     total cpu time spent up to now is        7.6 secs

     per-process dynamical memory:   177.4 Mb

     Self-consistent Calculation

     iteration #  1     ecut=    55.00 Ry     beta= 0.30
     Davidson diagonalization with overlap
     c_bands:  1 eigenvalues not converged
     c_bands:  1 eigenvalues not converged
     ethr =  1.00E-05,  avg # of iterations = 17.0

     negative rho (up, down):  4.043E-05 0.000E+00

     total cpu time spent up to now is       10.3 secs

     total energy              =    -609.38975926 Ry
     estimated scf accuracy    <       1.40026360 Ry

     iteration #  2     ecut=    55.00 Ry     beta= 0.30
     Davidson diagonalization with overlap
     ethr =  1.61E-03,  avg # of iterations =  8.5

     negative rho (up, down):  6.357E-05 0.000E+00

     total cpu time spent up to now is       11.4 secs

     total energy              =    -607.22380328 Ry
     estimated scf accuracy    <      63.24279985 Ry

     iteration #  3     ecut=    55.00 Ry     beta= 0.30
     Davidson diagonalization with overlap
     ethr =  1.61E-03,  avg # of iterations =  6.0

     negative rho (up, down):  7.411E-05 0.000E+00

     total cpu time spent up to now is       12.4 secs

     total energy              =    -609.65039907 Ry
     estimated scf accuracy    <       9.37125152 Ry

     iteration #  4     ecut=    55.00 Ry     beta= 0.30
     Davidson diagonalization with overlap
     ethr =  1.61E-03,  avg # of iterations =  2.2

     negative rho (up, down):  3.482E-05 0.000E+00

     total cpu time spent up to now is       13.0 secs

     total energy              =    -609.89533192 Ry
     estimated scf accuracy    <       1.12825651 Ry

     iteration #  5     ecut=    55.00 Ry     beta= 0.30
     Davidson diagonalization with overlap
     ethr =  1.30E-03,  avg # of iterations =  1.6

     negative rho (up, down):  1.760E-05 0.000E+00

     total cpu time spent up to now is       13.5 secs

     total energy              =    -609.91182567 Ry
     estimated scf accuracy    <       0.17456586 Ry

     iteration #  6     ecut=    55.00 Ry     beta= 0.30
     Davidson diagonalization with overlap
     ethr =  2.01E-04,  avg # of iterations =  5.6

     negative rho (up, down):  6.344E-06 0.000E+00

     total cpu time spent up to now is       14.2 secs

     total energy              =    -609.90748311 Ry
     estimated scf accuracy    <       0.07844311 Ry

     iteration #  7     ecut=    55.00 Ry     beta= 0.30
     Davidson diagonalization with overlap
     ethr =  9.02E-05,  avg # of iterations =  7.6

     negative rho (up, down):  3.194E-06 0.000E+00

     total cpu time spent up to now is       15.1 secs

     total energy              =    -609.90790492 Ry
     estimated scf accuracy    <       0.02052787 Ry

     iteration #  8     ecut=    55.00 Ry     beta= 0.30
     Davidson diagonalization with overlap
     ethr =  2.36E-05,  avg # of iterations =  5.6

     negative rho (up, down):  3.999E-06 0.000E+00

     total cpu time spent up to now is       15.9 secs

     total energy              =    -609.90832858 Ry
     estimated scf accuracy    <       0.00246355 Ry

     iteration #  9     ecut=    55.00 Ry     beta= 0.30
     Davidson diagonalization with overlap
     ethr =  2.83E-06,  avg # of iterations = 10.2

     negative rho (up, down):  7.053E-06 0.000E+00

     total cpu time spent up to now is       17.0 secs

     total energy              =    -609.90855408 Ry
     estimated scf accuracy    <       0.00046484 Ry

     iteration # 10     ecut=    55.00 Ry     beta= 0.30
     Davidson diagonalization with overlap
     ethr =  5.34E-07,  avg # of iterations =  2.1

     negative rho (up, down):  1.149E-05 0.000E+00

     total cpu time spent up to now is       17.5 secs

     total energy              =    -609.90860488 Ry
     estimated scf accuracy    <       0.00026044 Ry

     iteration # 11     ecut=    55.00 Ry     beta= 0.30
     Davidson diagonalization with overlap
     ethr =  2.99E-07,  avg # of iterations =  2.8

     negative rho (up, down):  1.089E-05 0.000E+00

     total cpu time spent up to now is       18.0 secs

     total energy              =    -609.90863219 Ry
     estimated scf accuracy    <       0.00003018 Ry

     iteration # 12     ecut=    55.00 Ry     beta= 0.30
     Davidson diagonalization with overlap
     ethr =  3.47E-08,  avg # of iterations =  2.4

     negative rho (up, down):  1.440E-05 0.000E+00

     total cpu time spent up to now is       18.6 secs

     total energy              =    -609.90863400 Ry
     estimated scf accuracy    <       0.00000665 Ry

     iteration # 13     ecut=    55.00 Ry     beta= 0.30
     Davidson diagonalization with overlap
     ethr =  7.65E-09,  avg # of iterations =  6.2

     negative rho (up, down):  1.547E-05 0.000E+00

     total cpu time spent up to now is       19.4 secs

     total energy              =    -609.90863533 Ry
     estimated scf accuracy    <       0.00000135 Ry

     iteration # 14     ecut=    55.00 Ry     beta= 0.30
     Davidson diagonalization with overlap
     ethr =  1.55E-09,  avg # of iterations =  2.6

     negative rho (up, down):  1.517E-05 0.000E+00

     total cpu time spent up to now is       20.0 secs

     End of self-consistent calculation

          k = 0.0000 0.0000 0.0000 ( 19753 PWs)   bands (ev):

   -46.2258 -44.5480 -44.4353 -43.9236 -43.8385 -43.8075 -43.7490  -4.1712
    -3.7761  -3.4990  -3.4804  -3.4591  -3.4261  -3.3314  -3.2642  -3.2530
    -3.2474  -3.1179  -3.0535  -2.9527  -2.9099  -2.8845  -2.4471  -2.4342
    -2.4235  -2.3558  -2.3431  -2.2403  -2.2389  -2.2366  -2.1378  -2.1326
    -2.1189  -2.0275  -1.9731  -1.9663  -1.9575  -1.9444  -1.9412  -1.6169
    -1.4495  -0.3188   0.7651   1.8253   2.2522   2.4789   2.9522   3.9759
     4.7386   5.0982   5.1811   5.3521   6.0663

          k = 0.0000 0.0884 0.0000 ( 19735 PWs)   bands (ev):

   -46.2257 -44.5479 -44.4352 -43.9235 -43.8384 -43.8074 -43.7489  -4.0802
    -3.7577  -3.4832  -3.4521  -3.4294  -3.4202  -3.2889  -3.2649  -3.2564
    -3.2059  -3.1289  -3.0730  -2.9465  -2.8517  -2.8223  -2.5054  -2.4556
    -2.4451  -2.3766  -2.3407  -2.2633  -2.2212  -2.1705  -2.1531  -2.1395
    -2.1213  -2.1040  -2.0289  -1.9917  -1.9556  -1.9404  -1.9306  -1.7510
    -1.2190  -0.1338   0.8957   1.5192   2.1128   2.3388   2.6561   3.3011
     4.4168   4.9088   5.3506   5.5252   5.7036

          k = 0.0000 0.1768 0.0000 ( 19834 PWs)   bands (ev):

   -46.2259 -44.5480 -44.4353 -43.9236 -43.8384 -43.8075 -43.7491  -3.8522
    -3.6987  -3.4945  -3.4082  -3.3833  -3.3157  -3.2686  -3.2328  -3.2161
    -3.1566  -3.1238  -3.0588  -2.8392  -2.8141  -2.7203  -2.4996  -2.4916
    -2.4852  -2.4004  -2.3771  -2.3026  -2.2585  -2.2550  -2.2469  -2.2152
    -2.1242  -2.1075  -2.0762  -2.0135  -1.9438  -1.9244  -1.9079  -1.7031
    -0.7360   0.2540   0.2764   1.1155   1.6520   2.0771   2.5963   3.0284
     3.2382   4.2505   5.2743   5.3399   5.7515

          k = 0.0000 0.2652 0.0000 ( 19874 PWs)   bands (ev):

   -46.2259 -44.5480 -44.4353 -43.9235 -43.8384 -43.8075 -43.7491  -3.6403
    -3.6185  -3.4952  -3.3814  -3.3451  -3.3168  -3.2438  -3.2001  -3.1627
    -3.1461  -3.0398  -2.8654  -2.7965  -2.7700  -2.6381  -2.5395  -2.5283
    -2.4897  -2.4423  -2.4234  -2.4098  -2.3818  -2.2832  -2.2501  -2.2315
    -2.1383  -2.0790  -2.0067  -1.9567  -1.9294  -1.9119  -1.8874  -1.1366
    -0.8481  -0.1777  -0.0895   0.9174   1.1936   1.9805   2.2533   2.9816
     3.3715   3.7617   4.2201   5.3319   5.8503

          k = 0.0000-0.3536 0.0000 ( 19864 PWs)   bands (ev):

   -46.2259 -44.5480 -44.4352 -43.9235 -43.8383 -43.8075 -43.7491  -3.5765
    -3.5637  -3.4797  -3.4133  -3.3170  -3.3114  -3.2442  -3.2417  -3.1404
    -3.1349  -2.8717  -2.8457  -2.7557  -2.7062  -2.6721  -2.6006  -2.5546
    -2.5425  -2.4705  -2.4446  -2.4346  -2.4199  -2.2809  -2.2741  -2.1161
    -2.0916  -1.9984  -1.9283  -1.9034  -1.8801  -1.8386  -1.8068  -1.1578
    -1.1559  -0.2872  -0.2560   0.9085   0.9554   2.0390   2.0463   2.9185
     3.3177   3.8914   4.5102   4.5629   5.2253

          k = 0.1250-0.0000 0.0000 ( 19806 PWs)   bands (ev):

   -46.2252 -44.5473 -44.4346 -43.9229 -43.8378 -43.8068 -43.7482  -3.9666
    -3.5294  -3.4765  -3.4324  -3.3590  -3.2626  -3.2485  -3.2286  -3.1971
    -3.0594  -2.9500  -2.9106  -2.8973  -2.8802  -2.8421  -2.6324  -2.6208
    -2.5889  -2.5197  -2.3802  -2.3723  -2.3605  -2.2294  -2.2280  -2.1373
    -2.1306  -2.1223  -2.0694  -2.0468  -2.0414  -1.9436  -1.9085  -1.5996
    -1.2228  -0.0677   1.0458   2.1454   2.6958   2.7819   3.3622   4.3421
     4.9476   5.3041   5.5038   5.5641   6.2855

          k = 0.1250 0.0884 0.0000 ( 19853 PWs)   bands (ev):

   -46.2253 -44.5474 -44.4347 -43.9229 -43.8378 -43.8068 -43.7483  -3.8691
    -3.5501  -3.4213  -3.3521  -3.3354  -3.2783  -3.2322  -3.1979  -3.1742
    -3.0684  -2.9357  -2.9244  -2.8683  -2.8464  -2.8195  -2.6521  -2.6368
    -2.5859  -2.5507  -2.4295  -2.3798  -2.3465  -2.2563  -2.2038  -2.1529
    -2.1285  -2.0907  -2.0697  -2.0504  -2.0355  -2.0037  -1.9208  -1.7129
    -1.0226   0.0986   1.1583   1.8503   2.4697   2.6941   2.9554   3.5981
     4.6531   5.1394   5.5871   5.7126   5.9136

          k = 0.1250 0.1768 0.0000 ( 19851 PWs)   bands (ev):

   -46.2252 -44.5473 -44.4346 -43.9228 -43.8376 -43.8067 -43.7483  -3.6280
    -3.5145  -3.3266  -3.2749  -3.2634  -3.2574  -3.1910  -3.1481  -3.0910
    -3.0489  -2.9614  -2.9225  -2.8284  -2.8047  -2.7337  -2.6873  -2.6609
    -2.5893  -2.5847  -2.4442  -2.3856  -2.3430  -2.2809  -2.2402  -2.2128
    -2.1706  -2.1450  -2.1048  -2.0555  -2.0368  -2.0019  -1.9855  -1.5679
    -0.5637   0.4510   0.5454   1.3587   1.9633   2.3249   2.8861   3.3012
     3.4642   4.4214   5.4891   5.5299   5.9863

          k = 0.1250 0.2652 0.0000 ( 19897 PWs)   bands (ev):

   -46.2253 -44.5473 -44.4346 -43.9228 -43.8376 -43.8068 -43.7483  -3.4405
    -3.4386  -3.2923  -3.2288  -3.1907  -3.1757  -3.1357  -3.1060  -3.0329
    -2.9981  -2.9841  -2.8547  -2.7939  -2.7665  -2.7219  -2.7070  -2.6268
    -2.6183  -2.5935  -2.4677  -2.4165  -2.4078  -2.3642  -2.3012  -2.2593
    -2.1791  -2.1333  -2.1009  -2.0253  -1.9955  -1.9880  -1.7907  -0.9875
    -0.6139   0.0040   0.0477   1.1216   1.4488   2.1527   2.4987   3.1815
     3.5960   4.0568   4.4198   5.5272   6.0856

          k = 0.1250-0.3536 0.0000 ( 19884 PWs)   bands (ev):

   -46.2253 -44.5473 -44.4345 -43.9227 -43.8375 -43.8067 -43.7483  -3.4009
    -3.3860  -3.2462  -3.2130  -3.2079  -3.1664  -3.1160  -3.1082  -3.0164
    -3.0108  -2.8656  -2.8388  -2.7519  -2.7397  -2.7246  -2.7121  -2.6543
    -2.6158  -2.5839  -2.5650  -2.4513  -2.4301  -2.3975  -2.3900  -2.2262
    -2.1927  -2.0886  -2.0255  -1.9884  -1.9874  -1.6251  -1.5991  -0.9983
    -0.9830  -0.1436  -0.1269   1.0842   1.1909   2.2039   2.2583   3.1373
     3.5243   4.1114   4.7312   4.8653   5.5142

          k = 0.1250-0.2652 0.0000 ( 19897 PWs)   bands (ev):

   -46.2253 -44.5473 -44.4346 -43.9228 -43.8376 -43.8068 -43.7483  -3.4405
    -3.4386  -3.2923  -3.2288  -3.1907  -3.1757  -3.1357  -3.1060  -3.0329
    -2.9981  -2.9841  -2.8547  -2.7939  -2.7665  -2.7219  -2.7070  -2.6268
    -2.6183  -2.5935  -2.4677  -2.4165  -2.4078  -2.3642  -2.3012  -2.2593
    -2.1791  -2.1333  -2.1009  -2.0253  -1.9955  -1.9880  -1.7907  -0.9875
    -0.6139   0.0040   0.0477   1.1216   1.4488   2.1527   2.4987   3.1815
     3.5960   4.0569   4.4198   5.5272   6.0855

          k = 0.1250-0.1768 0.0000 ( 19851 PWs)   bands (ev):

   -46.2252 -44.5473 -44.4346 -43.9228 -43.8376 -43.8067 -43.7483  -3.6280
    -3.5145  -3.3266  -3.2749  -3.2634  -3.2574  -3.1910  -3.1481  -3.0910
    -3.0489  -2.9614  -2.9225  -2.8284  -2.8047  -2.7337  -2.6873  -2.6609
    -2.5893  -2.5847  -2.4442  -2.3856  -2.3430  -2.2809  -2.2402  -2.2128
    -2.1706  -2.1450  -2.1048  -2.0555  -2.0368  -2.0019  -1.9855  -1.5679
    -0.5637   0.4510   0.5454   1.3587   1.9633   2.3249   2.8861   3.3012
     3.4642   4.4214   5.4894   5.5302   5.9869

          k = 0.1250-0.0884 0.0000 ( 19853 PWs)   bands (ev):

   -46.2253 -44.5474 -44.4347 -43.9229 -43.8378 -43.8068 -43.7483  -3.8691
    -3.5501  -3.4213  -3.3521  -3.3354  -3.2783  -3.2322  -3.1979  -3.1742
    -3.0684  -2.9357  -2.9244  -2.8683  -2.8464  -2.8195  -2.6521  -2.6368
    -2.5859  -2.5507  -2.4295  -2.3798  -2.3465  -2.2563  -2.2038  -2.1529
    -2.1285  -2.0907  -2.0697  -2.0504  -2.0355  -2.0037  -1.9208  -1.7129
    -1.0226   0.0986   1.1583   1.8503   2.4697   2.6941   2.9554   3.5981
     4.6532   5.1394   5.5871   5.7125   5.9136

          k = 0.2500-0.0000 0.0000 ( 19968 PWs)   bands (ev):

   -46.2239 -44.5458 -44.4330 -43.9212 -43.8361 -43.8051 -43.7465  -3.6745
    -3.4682  -3.3665  -3.2785  -3.2388  -3.1675  -3.0477  -3.0363  -3.0015
    -2.9308  -2.9162  -2.8973  -2.8755  -2.8248  -2.7823  -2.7293  -2.6389
    -2.5307  -2.4561  -2.4049  -2.3715  -2.3492  -2.3221  -2.3207  -2.2726
    -2.2539  -2.2438  -2.2107  -2.0641  -1.9607  -1.8600  -1.6045  -1.5725
    -0.5981   0.6060   1.7794   2.9510   3.6763   3.8355   4.4449   5.1632
     5.3337   5.4576   5.5256   5.9182   5.9637

          k = 0.2500 0.0884 0.0000 ( 19915 PWs)   bands (ev):

   -46.2238 -44.5457 -44.4329 -43.9211 -43.8359 -43.8050 -43.7464  -3.5874
    -3.4099  -3.3859  -3.2054  -3.1786  -3.1697  -3.0549  -3.0455  -2.9892
    -2.9432  -2.9065  -2.8872  -2.8215  -2.7945  -2.7884  -2.7359  -2.6305
    -2.5182  -2.4603  -2.4420  -2.3665  -2.3514  -2.3176  -2.2935  -2.2743
    -2.2475  -2.2167  -2.1980  -2.0858  -1.9888  -1.9360  -1.6911  -1.4869
    -0.4520   0.7385   1.8616   2.6703   3.3748   3.5818   3.8309   4.2968
     4.9908   5.2041   5.3663   5.8157   6.2832

          k = 0.2500 0.1768 0.0000 ( 19923 PWs)   bands (ev):

   -46.2238 -44.5456 -44.4328 -43.9210 -43.8358 -43.8049 -43.7464  -3.4002
    -3.3470  -3.2487  -3.1313  -3.1254  -3.0883  -3.0733  -3.0039  -2.9870
    -2.9630  -2.8700  -2.8615  -2.7959  -2.7759  -2.7117  -2.7068  -2.6104
    -2.5368  -2.4899  -2.4294  -2.3806  -2.3652  -2.3002  -2.2546  -2.2442
    -2.2306  -2.2000  -2.1656  -2.1437  -2.0929  -1.9418  -1.8788  -1.1503
    -0.0647   1.0210   1.2659   1.9684   2.7191   2.9125   3.6227   3.7692
     4.2825   4.5951   5.2247   6.0110   6.1873

          k = 0.2500 0.2652 0.0000 ( 19896 PWs)   bands (ev):

   -46.2237 -44.5456 -44.4328 -43.9209 -43.8357 -43.8049 -43.7464  -3.2737
    -3.2696  -3.1041  -3.0961  -3.0827  -3.0527  -3.0337  -2.9859  -2.9683
    -2.8726  -2.8594  -2.8117  -2.7952  -2.7153  -2.6823  -2.6147  -2.5775
    -2.5443  -2.5181  -2.4304  -2.4184  -2.3920  -2.3571  -2.3358  -2.2798
    -2.2528  -2.2285  -2.2205  -2.1905  -2.1536  -1.7746  -1.3663  -0.5618
     0.0253   0.4606   0.5243   1.5925   2.0633   2.5567   3.1303   3.5899
     4.2007   4.6777   4.9732   5.6353   6.7163

          k = 0.2500-0.3536 0.0000 ( 19900 PWs)   bands (ev):

   -46.2237 -44.5455 -44.4327 -43.9209 -43.8356 -43.8048 -43.7464  -3.2384
    -3.2207  -3.1061  -3.1007  -3.0507  -3.0386  -3.0036  -3.0021  -2.9030
    -2.9006  -2.7973  -2.7706  -2.7016  -2.6802  -2.6198  -2.6006  -2.5877
    -2.5679  -2.5438  -2.5109  -2.4358  -2.4150  -2.4039  -2.3769  -2.3263
    -2.3070  -2.2763  -2.2254  -2.1784  -2.1712  -1.0597  -1.0281  -0.5353
    -0.4960   0.2525   0.2580   1.4984   1.7219   2.6195   2.7847   3.6721
     4.0281   4.6401   5.2068   5.6496   6.2936

          k = 0.2500-0.2652 0.0000 ( 19896 PWs)   bands (ev):

   -46.2237 -44.5456 -44.4328 -43.9209 -43.8357 -43.8049 -43.7464  -3.2737
    -3.2696  -3.1041  -3.0961  -3.0827  -3.0527  -3.0337  -2.9859  -2.9683
    -2.8726  -2.8594  -2.8117  -2.7952  -2.7153  -2.6823  -2.6147  -2.5775
    -2.5443  -2.5181  -2.4304  -2.4184  -2.3920  -2.3571  -2.3358  -2.2798
    -2.2528  -2.2285  -2.2205  -2.1905  -2.1536  -1.7746  -1.3663  -0.5618
     0.0253   0.4606   0.5243   1.5925   2.0633   2.5567   3.1303   3.5899
     4.2007   4.6777   4.9732   5.6353   6.7163

          k = 0.2500-0.1768 0.0000 ( 19923 PWs)   bands (ev):

   -46.2238 -44.5456 -44.4328 -43.9210 -43.8358 -43.8049 -43.7464  -3.4002
    -3.3470  -3.2487  -3.1313  -3.1254  -3.0883  -3.0733  -3.0039  -2.9870
    -2.9630  -2.8700  -2.8615  -2.7959  -2.7759  -2.7117  -2.7068  -2.6104
    -2.5368  -2.4899  -2.4294  -2.3806  -2.3652  -2.3002  -2.2546  -2.2442
    -2.2306  -2.2000  -2.1656  -2.1437  -2.0929  -1.9418  -1.8788  -1.1503
    -0.0647   1.0210   1.2659   1.9684   2.7191   2.9125   3.6227   3.7692
     4.2825   4.5951   5.2247   6.0110   6.1873

          k = 0.2500-0.0884 0.0000 ( 19915 PWs)   bands (ev):

   -46.2238 -44.5457 -44.4329 -43.9211 -43.8359 -43.8050 -43.7464  -3.5874
    -3.4099  -3.3859  -3.2054  -3.1786  -3.1697  -3.0549  -3.0455  -2.9892
    -2.9432  -2.9065  -2.8872  -2.8215  -2.7945  -2.7884  -2.7359  -2.6305
    -2.5182  -2.4603  -2.4419  -2.3665  -2.3514  -2.3176  -2.2935  -2.2743
    -2.2475  -2.2167  -2.1980  -2.0858  -1.9888  -1.9360  -1.6911  -1.4869
    -0.4520   0.7385   1.8616   2.6703   3.3748   3.5818   3.8309   4.2968
     4.9908   5.2041   5.3663   5.8157   6.2832

          k = 0.3750-0.0000 0.0000 ( 19934 PWs)   bands (ev):

   -46.2222 -44.5439 -44.4311 -43.9191 -43.8340 -43.8030 -43.7444  -3.5450
    -3.4569  -3.3679  -3.3637  -3.2973  -3.2331  -3.2271  -3.2206  -3.1682
    -3.0955  -3.0452  -3.0363  -2.8800  -2.8014  -2.7747  -2.7421  -2.7157
    -2.5876  -2.5649  -2.4826  -2.4772  -2.2603  -2.2358  -2.1029  -2.0151
    -1.9287  -1.8263  -1.8158  -1.7314  -1.5514  -1.2742  -0.9506  -0.3790
     0.5467   1.6765   2.7428   2.8764   3.1474   3.7580   4.1108   4.5783
     5.0317   5.3834   5.4349   5.9661   6.1793

          k = 0.3750 0.0884 0.0000 ( 19943 PWs)   bands (ev):

   -46.2222 -44.5439 -44.4311 -43.9191 -43.8340 -43.8030 -43.7444  -3.4675
    -3.3992  -3.3738  -3.3608  -3.3020  -3.2518  -3.2115  -3.1672  -3.1023
    -3.0931  -3.0690  -3.0138  -2.8355  -2.8177  -2.7499  -2.6877  -2.6801
    -2.6089  -2.5192  -2.4781  -2.4562  -2.3604  -2.1584  -2.1247  -2.0741
    -1.9631  -1.8315  -1.8232  -1.7233  -1.6191  -1.2079  -0.9011  -0.3195
     0.6334   1.7769   2.8191   2.9297   3.1692   3.6523   3.8512   4.2371
     4.5009   4.5989   5.1816   5.9253   6.4252

          k = 0.3750 0.1768 0.0000 ( 19944 PWs)   bands (ev):

   -46.2222 -44.5439 -44.4311 -43.9191 -43.8339 -43.8030 -43.7445  -3.3823
    -3.3810  -3.2995  -3.2656  -3.2501  -3.2290  -3.2144  -3.0692  -3.0585
    -3.0345  -3.0283  -2.9774  -2.7949  -2.7663  -2.6995  -2.6390  -2.5858
    -2.5536  -2.5031  -2.4337  -2.4187  -2.3786  -2.2281  -2.1758  -2.1380
    -2.0465  -1.9065  -1.8213  -1.7558  -1.7011  -0.9963  -0.7146  -0.1064
     0.8940   2.0153   2.4307   2.7386   3.0609   3.2015   3.2674   3.4595
     3.6559   4.6285   5.5513   5.8337   5.9276

          k = 0.3750 0.2652 0.0000 ( 19919 PWs)   bands (ev):

   -46.2221 -44.5438 -44.4310 -43.9190 -43.8338 -43.8030 -43.7445  -3.3937
    -3.3887  -3.2596  -3.2543  -3.1715  -3.1621  -3.0929  -3.0345  -3.0110
    -2.9641  -2.9398  -2.8116  -2.7714  -2.7051  -2.6320  -2.6059  -2.5330
    -2.5196  -2.4749  -2.3908  -2.3791  -2.3530  -2.3223  -2.2939  -2.1925
    -2.1273  -1.9041  -1.8791  -1.7905  -1.7473  -0.5850  -0.2892   0.3418
     1.1504   1.2949   1.4948   2.1034   2.6936   2.7651   3.2256   3.4393
     3.8071   4.6578   5.3442   5.8457   6.0384

          k = 0.3750-0.3536 0.0000 ( 19954 PWs)   bands (ev):

   -46.2222 -44.5439 -44.4311 -43.9191 -43.8339 -43.8031 -43.7446  -3.3967
    -3.3941  -3.2614  -3.2588  -3.1250  -3.1138  -3.0815  -3.0689  -2.9527
    -2.9510  -2.7739  -2.7438  -2.7305  -2.6931  -2.6124  -2.5779  -2.5554
    -2.5062  -2.4836  -2.4678  -2.3739  -2.3618  -2.3558  -2.3435  -2.1458
    -2.1134  -1.9249  -1.8751  -1.8052  -1.7899   0.1017   0.1319   0.4428
     0.4808   1.0413   1.0543   1.9453   2.2085   2.9442   3.0907   3.7887
     3.8379   4.4958   5.1560   5.9270   5.9323

          k = 0.3750-0.2652 0.0000 ( 19919 PWs)   bands (ev):

   -46.2221 -44.5438 -44.4310 -43.9190 -43.8338 -43.8030 -43.7445  -3.3937
    -3.3887  -3.2596  -3.2543  -3.1715  -3.1621  -3.0929  -3.0345  -3.0110
    -2.9641  -2.9398  -2.8116  -2.7714  -2.7051  -2.6320  -2.6059  -2.5330
    -2.5196  -2.4749  -2.3908  -2.3791  -2.3530  -2.3223  -2.2939  -2.1925
    -2.1273  -1.9041  -1.8791  -1.7905  -1.7473  -0.5850  -0.2892   0.3418
     1.1504   1.2949   1.4948   2.1034   2.6936   2.7651   3.2256   3.4393
     3.8071   4.6578   5.3442   5.8457   6.0382

          k = 0.3750-0.1768 0.0000 ( 19944 PWs)   bands (ev):

   -46.2222 -44.5439 -44.4311 -43.9191 -43.8339 -43.8030 -43.7445  -3.3823
    -3.3810  -3.2995  -3.2656  -3.2501  -3.2290  -3.2144  -3.0692  -3.0585
    -3.0345  -3.0283  -2.9774  -2.7949  -2.7663  -2.6995  -2.6390  -2.5858
    -2.5536  -2.5031  -2.4337  -2.4187  -2.3786  -2.2281  -2.1758  -2.1380
    -2.0465  -1.9065  -1.8213  -1.7558  -1.7011  -0.9963  -0.7146  -0.1064
     0.8940   2.0153   2.4307   2.7386   3.0609   3.2015   3.2674   3.4595
     3.6559   4.6285   5.5513   5.8337   5.9276

          k = 0.3750-0.0884 0.0000 ( 19943 PWs)   bands (ev):

   -46.2222 -44.5439 -44.4311 -43.9191 -43.8340 -43.8030 -43.7444  -3.4675
    -3.3992  -3.3738  -3.3608  -3.3020  -3.2518  -3.2115  -3.1672  -3.1023
    -3.0931  -3.0690  -3.0138  -2.8355  -2.8177  -2.7499  -2.6877  -2.6801
    -2.6089  -2.5192  -2.4781  -2.4562  -2.3604  -2.1584  -2.1247  -2.0741
    -1.9631  -1.8315  -1.8232  -1.7233  -1.6191  -1.2079  -0.9011  -0.3195
     0.6334   1.7769   2.8191   2.9297   3.1692   3.6523   3.8512   4.2371
     4.5009   4.5989   5.1815   5.9253   6.4253

          k =-0.5000 0.0000 0.0000 ( 19974 PWs)   bands (ev):

   -46.2217 -44.5432 -44.4303 -43.9184 -43.8333 -43.8022 -43.7436  -3.5059
    -3.4846  -3.4836  -3.4497  -3.3384  -3.3279  -3.2671  -3.2154  -3.1237
    -3.1218  -3.1175  -3.0536  -2.8825  -2.8820  -2.8684  -2.7201  -2.7010
    -2.6824  -2.6400  -2.5620  -2.5566  -2.2484  -2.1842  -2.0729  -1.9300
    -1.8603  -1.8138  -1.5937  -1.5434  -1.4811   0.3806   0.6001   0.7522
     1.0240   1.2366   1.7324   1.9894   2.8022   2.9991   4.0580   4.1214
     5.0689   5.6435   5.6764   6.6649   6.7398

          k =-0.5000 0.0884 0.0000 ( 19948 PWs)   bands (ev):

   -46.2216 -44.5432 -44.4303 -43.9183 -43.8332 -43.8022 -43.7436  -3.4913
    -3.4827  -3.4308  -3.3841  -3.3555  -3.3167  -3.2682  -3.1574  -3.1559
    -3.0933  -3.0576  -3.0438  -2.9157  -2.8412  -2.8191  -2.6922  -2.6717
    -2.6496  -2.6045  -2.5555  -2.5293  -2.3459  -2.1035  -2.0929  -2.0164
    -1.9395  -1.7184  -1.6824  -1.5227  -1.4825   0.4159   0.6341   0.8663
     1.0680   1.2983   1.8003   1.9839   2.8904   2.9230   3.9156   4.2133
     4.8564   5.4052   5.6089   5.8609   6.2244

          k =-0.5000 0.1768 0.0000 ( 19956 PWs)   bands (ev):

   -46.2216 -44.5432 -44.4303 -43.9183 -43.8332 -43.8023 -43.7437  -3.4961
    -3.4924  -3.3642  -3.3317  -3.2637  -3.2133  -3.2077  -3.1454  -3.1250
    -3.0169  -2.9871  -2.9503  -2.8854  -2.8603  -2.6787  -2.6414  -2.6050
    -2.5877  -2.5496  -2.5013  -2.4882  -2.3685  -2.1778  -2.1604  -2.1014
    -1.9966  -1.8214  -1.6153  -1.5509  -1.4823   0.5478   0.7624   1.1969
     1.2150   1.4903   1.9814   1.9840   2.7192   3.0405   3.5050   3.7811
     4.1611   4.3510   4.9876   5.5117   5.6418

          k =-0.5000 0.2652 0.0000 ( 19924 PWs)   bands (ev):

   -46.2215 -44.5431 -44.4303 -43.9183 -43.8330 -43.8022 -43.7437  -3.5041
    -3.4985  -3.3632  -3.3519  -3.1746  -3.1292  -3.1170  -3.1109  -2.9882
    -2.9238  -2.9131  -2.8815  -2.8045  -2.7593  -2.6252  -2.6082  -2.5508
    -2.5503  -2.5097  -2.4574  -2.4478  -2.3326  -2.3078  -2.2725  -2.1448
    -2.0362  -1.7131  -1.6966  -1.5496  -1.5012   0.8548   1.0660   1.5020
     1.7089   1.8254   2.0347   2.1169   2.4198   2.4619   2.6531   2.9460
     3.2867   4.0764   4.5162   4.9638   5.6052

          k =-0.5000-0.3536 0.0000 ( 19904 PWs)   bands (ev):

   -46.2214 -44.5430 -44.4302 -43.9182 -43.8330 -43.8022 -43.7437  -3.5053
    -3.5035  -3.3622  -3.3589  -3.1592  -3.1478  -3.0778  -3.0688  -2.8963
    -2.8874  -2.8649  -2.8326  -2.7317  -2.6888  -2.6007  -2.5969  -2.5621
    -2.5473  -2.5147  -2.4627  -2.4426  -2.4274  -2.3425  -2.3242  -2.0376
    -2.0013  -1.7350  -1.7006  -1.5424  -1.5229   1.4403   1.4489   1.5856
     1.7000   1.8465   2.0674   2.1454   2.1508   2.2628   2.4322   2.4370
     2.6023   4.1529   4.3557   4.6178   5.5837

     the Fermi energy is     1.9475 ev

!    total energy              =    -609.90863547 Ry
     estimated scf accuracy    <       0.00000024 Ry
     smearing contrib. (-TS)   =      -0.00193915 Ry
     internal energy E=F+TS    =    -609.90669632 Ry

     The total energy is F=E-TS. E is the sum of the following terms:
     one-electron contribution =   -6073.38261762 Ry
     hartree contribution      =    3077.11475456 Ry
     xc contribution           =    -159.35120853 Ry
     ewald contribution        =    2545.94489746 Ry
     DFT-D3 Dispersion         =      -0.23252219 Ry

     convergence has been achieved in  14 iterations

     negative rho (up, down):  1.517E-05 0.000E+00

     Forces acting on atoms (cartesian axes, Ry/au):

     atom    1 type  1   force =     0.00000110   -0.00000081    0.02419803
     atom    2 type  1   force =    -0.00000051   -0.00000170    0.00340678
     atom    3 type  1   force =     0.00000143    0.00000023   -0.00333429
     atom    4 type  1   force =    -0.00000042   -0.00000064    0.00074132
     atom    5 type  1   force =    -0.00000065    0.00000050    0.00404166
     atom    6 type  1   force =     0.00000025   -0.00000037    0.00909552
     atom    7 type  2   force =    -0.00000048    0.00000010   -0.06494451
     atom    8 type  2   force =    -0.00000077    0.00000028   -0.00298723
     atom    9 type  2   force =     0.00000037    0.00000077   -0.00062881
     atom   10 type  2   force =    -0.00000023    0.00000009   -0.00108563
     atom   11 type  2   force =    -0.00000000    0.00000072   -0.00352372
     atom   12 type  2   force =    -0.00000007    0.00000043   -0.00636396
     atom   13 type  2   force =    -0.00000002    0.00000040    0.04138484
     The non-local contrib.  to forces
     atom    1 type  1   force =     0.00000111   -0.00000142    0.01696290
     atom    2 type  1   force =    -0.00000142   -0.00000080   -0.00436293
     atom    3 type  1   force =     0.00000359    0.00000000    0.00222538
     atom    4 type  1   force =    -0.00000079   -0.00000045    0.00573965
     atom    5 type  1   force =     0.00000076    0.00000063   -0.00312851
     atom    6 type  1   force =    -0.00000020   -0.00000054   -0.05381251
     atom    7 type  2   force =    -0.00000558   -0.00000003    0.03639062
     atom    8 type  2   force =    -0.00000562   -0.00000019   -0.00280980
     atom    9 type  2   force =    -0.00000384    0.00000039   -0.00287403
     atom   10 type  2   force =    -0.00000387   -0.00000006   -0.00142450
     atom   11 type  2   force =    -0.00000443    0.00000033   -0.00619028
     atom   12 type  2   force =    -0.00000476   -0.00000003   -0.03788693
     atom   13 type  2   force =    -0.00000867    0.00000018    0.02036951
     The ionic contribution  to forces
     atom    1 type  1   force =     0.00000190   -0.00000255  104.38061688
     atom    2 type  1   force =     0.00000156    0.00000220   62.38857336
     atom    3 type  1   force =     0.00000085    0.00000111   17.23842225
     atom    4 type  1   force =     0.00000005   -0.00000005  -26.53120585
     atom    5 type  1   force =     0.00000000    0.00000000  -70.47928702
     atom    6 type  1   force =     0.00000000    0.00000000 -112.42074247
     atom    7 type  2   force =    -0.00000137   -0.00000223   29.68292545
     atom    8 type  2   force =    -0.00000121    0.00000242   16.49213904
     atom    9 type  2   force =    -0.00000170   -0.00000035    4.75125197
     atom   10 type  2   force =    -0.00000001    0.00000002   -7.24058118
     atom   11 type  2   force =    -0.00000000   -0.00000000  -19.17421520
     atom   12 type  2   force =    -0.00000000   -0.00000000  -31.36698937
     atom   13 type  2   force =    -0.00000009   -0.00000056   32.27909214
     The local contribution  to forces
     atom    1 type  1   force =    -0.00000231    0.00000399 -104.36246636
     atom    2 type  1   force =     0.00000013   -0.00000027  -62.37883810
     atom    3 type  1   force =    -0.00000152   -0.00000166  -17.24496784
     atom    4 type  1   force =     0.00000042    0.00000183   26.52545104
     atom    5 type  1   force =     0.00000056    0.00000174   70.48322266
     atom    6 type  1   force =     0.00000064   -0.00000090  112.47576550
     atom    7 type  2   force =     0.00000651    0.00000199  -29.78248222
     atom    8 type  2   force =     0.00000674   -0.00000313  -16.49113543
     atom    9 type  2   force =     0.00000554    0.00000073   -4.74900477
     atom   10 type  2   force =     0.00000368   -0.00000034    7.24062511
     atom   11 type  2   force =     0.00000475   -0.00000011   19.17524440
     atom   12 type  2   force =     0.00000472    0.00000022   31.39654901
     atom   13 type  2   force =     0.00000926    0.00000088  -32.25804857
     The core correction contribution to forces
     atom    1 type  1   force =    -0.00000005    0.00000007   -0.00586784
     atom    2 type  1   force =     0.00000002    0.00000015   -0.00081586
     atom    3 type  1   force =    -0.00000003   -0.00000003    0.00060484
     atom    4 type  1   force =    -0.00000002    0.00000012   -0.00003214
     atom    5 type  1   force =     0.00000006    0.00000005   -0.00021992
     atom    6 type  1   force =     0.00000000   -0.00000002    0.00449677
     atom    7 type  2   force =     0.00000000    0.00000000    0.00000000
     atom    8 type  2   force =     0.00000000    0.00000000    0.00000000
     atom    9 type  2   force =     0.00000000    0.00000000    0.00000000
     atom   10 type  2   force =     0.00000000    0.00000000    0.00000000
     atom   11 type  2   force =     0.00000000    0.00000000    0.00000000
     atom   12 type  2   force =     0.00000000    0.00000000    0.00000000
     atom   13 type  2   force =     0.00000000    0.00000000    0.00000000
     The Hubbard contrib.    to forces
     atom    1 type  1   force =     0.00000000    0.00000000    0.00000000
     atom    2 type  1   force =     0.00000000    0.00000000    0.00000000
     atom    3 type  1   force =     0.00000000    0.00000000    0.00000000
     atom    4 type  1   force =     0.00000000    0.00000000    0.00000000
     atom    5 type  1   force =     0.00000000    0.00000000    0.00000000
     atom    6 type  1   force =     0.00000000    0.00000000    0.00000000
     atom    7 type  2   force =     0.00000000    0.00000000    0.00000000
     atom    8 type  2   force =     0.00000000    0.00000000    0.00000000
     atom    9 type  2   force =     0.00000000    0.00000000    0.00000000
     atom   10 type  2   force =     0.00000000    0.00000000    0.00000000
     atom   11 type  2   force =     0.00000000    0.00000000    0.00000000
     atom   12 type  2   force =     0.00000000    0.00000000    0.00000000
     atom   13 type  2   force =     0.00000000    0.00000000    0.00000000
     The SCF correction term to forces
     atom    1 type  1   force =     0.00000072   -0.00000123    0.00126810
     atom    2 type  1   force =    -0.00000052   -0.00000329    0.00111663
     atom    3 type  1   force =    -0.00000120    0.00000049    0.00041403
     atom    4 type  1   force =     0.00000019   -0.00000240    0.00026379
     atom    5 type  1   force =    -0.00000176   -0.00000225   -0.00013386
     atom    6 type  1   force =     0.00000008    0.00000076   -0.00029421
     atom    7 type  2   force =     0.00000022    0.00000005    0.00011138
     atom    8 type  2   force =    -0.00000041    0.00000087    0.00030388
     atom    9 type  2   force =     0.00000064   -0.00000032    0.00014602
     atom   10 type  2   force =     0.00000024    0.00000016    0.00003118
     atom   11 type  2   force =    -0.00000005    0.00000019   -0.00005795
     atom   12 type  2   force =     0.00000024   -0.00000009   -0.00017597
     atom   13 type  2   force =    -0.00000025   -0.00000043    0.00040133

     DFT-D3 dispersion contribution to forces:
     atom    1 type  1   force =     0.00000000    0.00000001   -0.00626385
     atom    2 type  1   force =    -0.00000001   -0.00000001   -0.00221453
     atom    3 type  1   force =     0.00000001    0.00000000    0.00001882
     atom    4 type  1   force =     0.00000000   -0.00000000    0.00057661
     atom    5 type  1   force =    -0.00000000   -0.00000000    0.00364010
     atom    6 type  1   force =    -0.00000000   -0.00000000    0.00373421
     atom    7 type  2   force =     0.00000000    0.00000001   -0.00183795
     atom    8 type  2   force =     0.00000000   -0.00000001   -0.00143313
     atom    9 type  2   force =     0.00000000    0.00000000   -0.00009622
     atom   10 type  2   force =    -0.00000000   -0.00000000    0.00031554
     atom   11 type  2   force =     0.00000000    0.00000000    0.00174710
     atom   12 type  2   force =    -0.00000000    0.00000000    0.00219108
     atom   13 type  2   force =     0.00000000   -0.00000000   -0.00037779

     Total force =     0.081864     Total SCF correction =     0.001877


     Computing stress (Cartesian axis) and pressure


     negative rho (up, down):  1.517E-05 0.000E+00
          total   stress  (Ry/bohr**3)                   (kbar)     P=      -12.26
  -0.00010093  -0.00000000  -0.00000000          -14.85       -0.00       -0.00
  -0.00000000  -0.00012733   0.00000000           -0.00      -18.73        0.00
  -0.00000000   0.00000000  -0.00002177           -0.00        0.00       -3.20


     BFGS Geometry Optimization
     Energy error            =      0.0E+00 Ry
     Gradient error          =      6.5E-02 Ry/Bohr

     number of scf cycles    =   1
     number of bfgs steps    =   0

     energy             new  =    -609.9086354698 Ry

     new trust radius        =       0.0649445073 bohr
     new conv_thr            =       0.0000010000 Ry


ATOMIC_POSITIONS (angstrom)
Ag            0.7806839297        1.1040573177       20.8572847261
Ag            0.7806820481        3.3121652935       18.8328781006
Ag            0.7806858386        1.1040555533       16.6225681590
Ag            0.7806848601        3.3121659575       14.4166140138
Ag            0.7806847396        1.1040556939       12.2102496202
Ag            0.7806852172        3.3121661005       10.0048131402
Li            2.3420537992        3.3121695572       21.1508747375
Li            2.3420535022        1.1040538206       18.7588879615
Li            2.3420554429        3.3121667028       16.6239998358
Li            2.3420551247        1.1040554782       14.4156472356
Li            2.3420552456        3.3121666763       12.2062461935
Li            2.3420552120        1.1040556587        9.9966323361
Li            2.3420540457        3.3121697135       23.2071418030



     Writing config-only to output data dir ./LiAg_mp-2426_110_ontop_1/LiAg_mp-2426_110_ontop_1.save/
     NEW-OLD atomic charge density approx. for the potential

     negative rho (up, down):  1.590E-05 0.000E+00

     total cpu time spent up to now is       21.8 secs

     per-process dynamical memory:   187.1 Mb

     Self-consistent Calculation

     iteration #  1     ecut=    55.00 Ry     beta= 0.30
     Davidson diagonalization with overlap
     ethr =  1.00E-06,  avg # of iterations =  5.5

     negative rho (up, down):  1.512E-05 0.000E+00

     total cpu time spent up to now is       23.0 secs

     total energy              =    -609.91482546 Ry
     estimated scf accuracy    <       0.00014980 Ry

     iteration #  2     ecut=    55.00 Ry     beta= 0.30
     Davidson diagonalization with overlap
     ethr =  1.72E-07,  avg # of iterations =  2.9

     negative rho (up, down):  3.041E-05 0.000E+00

     total cpu time spent up to now is       23.7 secs

     total energy              =    -609.91479644 Ry
     estimated scf accuracy    <       0.00096890 Ry

     iteration #  3     ecut=    55.00 Ry     beta= 0.30
     Davidson diagonalization with overlap
     ethr =  1.72E-07,  avg # of iterations =  1.8

     negative rho (up, down):  3.634E-05 0.000E+00

     total cpu time spent up to now is       24.2 secs

     total energy              =    -609.91485009 Ry
     estimated scf accuracy    <       0.00023969 Ry

     iteration #  4     ecut=    55.00 Ry     beta= 0.30
     Davidson diagonalization with overlap
     ethr =  1.72E-07,  avg # of iterations =  1.2

     negative rho (up, down):  2.921E-05 0.000E+00

     total cpu time spent up to now is       24.7 secs

     total energy              =    -609.91486149 Ry
     estimated scf accuracy    <       0.00004506 Ry

     iteration #  5     ecut=    55.00 Ry     beta= 0.30
     Davidson diagonalization with overlap
     ethr =  5.18E-08,  avg # of iterations =  1.3

     negative rho (up, down):  3.217E-05 0.000E+00

     total cpu time spent up to now is       25.2 secs

     total energy              =    -609.91484983 Ry
     estimated scf accuracy    <       0.00076069 Ry

     iteration #  6     ecut=    55.00 Ry     beta= 0.30
     Davidson diagonalization with overlap
     ethr =  5.18E-08,  avg # of iterations =  1.1

     negative rho (up, down):  2.119E-05 0.000E+00

     total cpu time spent up to now is       25.7 secs

     total energy              =    -609.91486667 Ry
     estimated scf accuracy    <       0.00000520 Ry

     iteration #  7     ecut=    55.00 Ry     beta= 0.30
     Davidson diagonalization with overlap
     ethr =  5.98E-09,  avg # of iterations =  2.2

     negative rho (up, down):  1.472E-05 0.000E+00

     total cpu time spent up to now is       26.2 secs

     End of self-consistent calculation

          k = 0.0000 0.0000 0.0000 ( 19753 PWs)   bands (ev):

   -46.1800 -44.4635 -44.4350 -43.9176 -43.8337 -43.8060 -43.7482  -4.1691
    -3.7735  -3.4966  -3.4780  -3.4573  -3.4236  -3.3293  -3.2599  -3.2499
    -3.2447  -3.1164  -3.0551  -2.9501  -2.9065  -2.8824  -2.4433  -2.4320
    -2.4214  -2.3547  -2.3406  -2.2395  -2.2377  -2.2344  -2.1346  -2.1287
    -2.1166  -2.0247  -1.9778  -1.9653  -1.9557  -1.9441  -1.9417  -1.6164
    -1.4485  -0.3241   0.7616   1.8240   2.2541   2.4501   2.9567   3.9846
     4.7332   5.0977   5.1953   5.3446   6.0595

          k = 0.0000 0.0884 0.0000 ( 19735 PWs)   bands (ev):

   -46.1800 -44.4634 -44.4349 -43.9175 -43.8336 -43.8059 -43.7481  -4.0782
    -3.7555  -3.4807  -3.4491  -3.4275  -3.4193  -3.2855  -3.2615  -3.2531
    -3.2035  -3.1272  -3.0746  -2.9440  -2.8489  -2.8194  -2.5025  -2.4532
    -2.4434  -2.3740  -2.3400  -2.2616  -2.2201  -2.1679  -2.1510  -2.1370
    -2.1186  -2.1004  -2.0260  -1.9957  -1.9556  -1.9420  -1.9287  -1.7506
    -1.2185  -0.1375   0.8943   1.5172   2.1130   2.3417   2.6284   3.3071
     4.4261   4.9029   5.3475   5.5271   5.6989

          k = 0.0000 0.1768 0.0000 ( 19834 PWs)   bands (ev):

   -46.1801 -44.4635 -44.4350 -43.9175 -43.8337 -43.8060 -43.7483  -3.8504
    -3.6971  -3.4930  -3.4058  -3.3817  -3.3125  -3.2661  -3.2310  -3.2134
    -3.1556  -3.1236  -3.0566  -2.8370  -2.8109  -2.7182  -2.4975  -2.4896
    -2.4829  -2.3975  -2.3767  -2.2996  -2.2562  -2.2518  -2.2457  -2.2149
    -2.1212  -2.1048  -2.0807  -2.0100  -1.9445  -1.9273  -1.9053  -1.7014
    -0.7348   0.2551   0.2786   1.1102   1.6552   2.0793   2.5908   3.0178
     3.2324   4.2515   5.2690   5.3339   5.7471

          k = 0.0000 0.2652 0.0000 ( 19874 PWs)   bands (ev):

   -46.1802 -44.4635 -44.4350 -43.9175 -43.8336 -43.8060 -43.7483  -3.6381
    -3.6170  -3.4947  -3.3798  -3.3425  -3.3164  -3.2432  -3.1989  -3.1599
    -3.1430  -3.0386  -2.8621  -2.7931  -2.7699  -2.6371  -2.5373  -2.5266
    -2.4875  -2.4405  -2.4203  -2.4091  -2.3792  -2.2820  -2.2475  -2.2339
    -2.1360  -2.0755  -2.0036  -1.9548  -1.9284  -1.9166  -1.8850  -1.1345
    -0.8465  -0.1744  -0.0858   0.9150   1.1976   1.9800   2.2531   2.9838
     3.3571   3.7473   4.2198   5.3231   5.8443

          k = 0.0000-0.3536 0.0000 ( 19864 PWs)   bands (ev):

   -46.1801 -44.4635 -44.4349 -43.9174 -43.8335 -43.8060 -43.7483  -3.5742
    -3.5620  -3.4759  -3.4170  -3.3156  -3.3111  -3.2423  -3.2397  -3.1377
    -3.1327  -2.8692  -2.8430  -2.7520  -2.7056  -2.6681  -2.6058  -2.5522
    -2.5410  -2.4704  -2.4407  -2.4312  -2.4195  -2.2781  -2.2733  -2.1131
    -2.0889  -1.9945  -1.9290  -1.9071  -1.8778  -1.8360  -1.8061  -1.1549
    -1.1545  -0.2834  -0.2528   0.9059   0.9635   2.0330   2.0494   2.9204
     3.3107   3.8680   4.5070   4.5666   5.2138

          k = 0.1250-0.0000 0.0000 ( 19806 PWs)   bands (ev):

   -46.1794 -44.4628 -44.4343 -43.9168 -43.8330 -43.8053 -43.7474  -3.9644
    -3.5261  -3.4744  -3.4306  -3.3571  -3.2584  -3.2462  -3.2255  -3.1960
    -3.0562  -2.9474  -2.9090  -2.8941  -2.8786  -2.8427  -2.6303  -2.6188
    -2.5864  -2.5195  -2.3765  -2.3717  -2.3580  -2.2270  -2.2233  -2.1342
    -2.1280  -2.1182  -2.0686  -2.0499  -2.0416  -1.9481  -1.9072  -1.5995
    -1.2220  -0.0718   1.0433   2.1408   2.6979   2.7569   3.3673   4.3523
     4.9421   5.3035   5.5188   5.5567   6.2791

          k = 0.1250 0.0884 0.0000 ( 19853 PWs)   bands (ev):

   -46.1795 -44.4629 -44.4343 -43.9169 -43.8330 -43.8053 -43.7475  -3.8669
    -3.5478  -3.4189  -3.3488  -3.3347  -3.2758  -3.2278  -3.1952  -3.1732
    -3.0652  -2.9335  -2.9228  -2.8686  -2.8441  -2.8169  -2.6499  -2.6348
    -2.5835  -2.5500  -2.4280  -2.3765  -2.3451  -2.2535  -2.2003  -2.1496
    -2.1252  -2.0896  -2.0687  -2.0496  -2.0373  -2.0046  -1.9231  -1.7127
    -1.0219   0.0957   1.1572   1.8476   2.4676   2.6976   2.9312   3.6052
     4.6633   5.1332   5.5843   5.7154   5.9085

          k = 0.1250 0.1768 0.0000 ( 19851 PWs)   bands (ev):

   -46.1795 -44.4628 -44.4343 -43.9168 -43.8329 -43.8052 -43.7475  -3.6259
    -3.5125  -3.3245  -3.2723  -3.2615  -3.2558  -3.1876  -3.1467  -3.0880
    -3.0469  -2.9605  -2.9223  -2.8262  -2.8018  -2.7318  -2.6851  -2.6590
    -2.5883  -2.5827  -2.4425  -2.3824  -2.3412  -2.2779  -2.2367  -2.2101
    -2.1704  -2.1433  -2.1014  -2.0567  -2.0365  -2.0013  -1.9898  -1.5664
    -0.5624   0.4513   0.5476   1.3551   1.9651   2.3284   2.8767   3.3010
     3.4535   4.4235   5.4848   5.5218   5.9823

          k = 0.1250 0.2652 0.0000 ( 19897 PWs)   bands (ev):

   -46.1795 -44.4628 -44.4343 -43.9167 -43.8328 -43.8053 -43.7475  -3.4388
    -3.4365  -3.2898  -3.2256  -3.1889  -3.1768  -3.1313  -3.1061  -3.0318
    -2.9981  -2.9810  -2.8516  -2.7906  -2.7662  -2.7201  -2.7051  -2.6253
    -2.6174  -2.5913  -2.4654  -2.4141  -2.4065  -2.3618  -2.2986  -2.2593
    -2.1751  -2.1331  -2.0978  -2.0240  -2.0003  -1.9859  -1.7892  -0.9856
    -0.6125   0.0067   0.0512   1.1195   1.4531   2.1540   2.4974   3.1847
     3.5789   4.0453   4.4190   5.5177   6.0789

          k = 0.1250-0.3536 0.0000 ( 19884 PWs)   bands (ev):

   -46.1795 -44.4628 -44.4342 -43.9167 -43.8327 -43.8052 -43.7475  -3.3983
    -3.3847  -3.2428  -3.2106  -3.2051  -3.1664  -3.1159  -3.1113  -3.0110
    -3.0100  -2.8633  -2.8366  -2.7484  -2.7374  -2.7228  -2.7104  -2.6508
    -2.6181  -2.5813  -2.5654  -2.4512  -2.4265  -2.3948  -2.3904  -2.2222
    -2.1906  -2.0841  -2.0260  -1.9930  -1.9842  -1.6233  -1.5979  -0.9953
    -0.9820  -0.1402  -0.1239   1.0818   1.1984   2.1996   2.2626   3.1372
     3.5172   4.0880   4.7269   4.8696   5.5035

          k = 0.1250-0.2652 0.0000 ( 19897 PWs)   bands (ev):

   -46.1795 -44.4628 -44.4343 -43.9167 -43.8328 -43.8053 -43.7475  -3.4388
    -3.4365  -3.2898  -3.2256  -3.1889  -3.1768  -3.1313  -3.1061  -3.0318
    -2.9981  -2.9810  -2.8516  -2.7906  -2.7662  -2.7201  -2.7051  -2.6253
    -2.6174  -2.5913  -2.4654  -2.4141  -2.4065  -2.3618  -2.2986  -2.2593
    -2.1751  -2.1331  -2.0978  -2.0240  -2.0003  -1.9859  -1.7892  -0.9856
    -0.6125   0.0067   0.0512   1.1195   1.4531   2.1540   2.4974   3.1847
     3.5789   4.0453   4.4190   5.5177   6.0788

          k = 0.1250-0.1768 0.0000 ( 19851 PWs)   bands (ev):

   -46.1795 -44.4628 -44.4343 -43.9168 -43.8329 -43.8052 -43.7475  -3.6259
    -3.5125  -3.3245  -3.2723  -3.2615  -3.2558  -3.1876  -3.1467  -3.0880
    -3.0469  -2.9605  -2.9223  -2.8262  -2.8018  -2.7318  -2.6851  -2.6590
    -2.5883  -2.5827  -2.4425  -2.3824  -2.3412  -2.2779  -2.2367  -2.2101
    -2.1704  -2.1433  -2.1014  -2.0567  -2.0365  -2.0013  -1.9898  -1.5664
    -0.5624   0.4513   0.5476   1.3551   1.9651   2.3284   2.8767   3.3010
     3.4535   4.4235   5.4848   5.5219   5.9824

          k = 0.1250-0.0884 0.0000 ( 19853 PWs)   bands (ev):

   -46.1795 -44.4629 -44.4343 -43.9169 -43.8330 -43.8053 -43.7475  -3.8669
    -3.5478  -3.4189  -3.3488  -3.3347  -3.2758  -3.2278  -3.1952  -3.1732
    -3.0652  -2.9335  -2.9228  -2.8686  -2.8441  -2.8169  -2.6499  -2.6348
    -2.5835  -2.5500  -2.4280  -2.3765  -2.3451  -2.2535  -2.2003  -2.1496
    -2.1252  -2.0896  -2.0687  -2.0496  -2.0373  -2.0046  -1.9231  -1.7127
    -1.0219   0.0957   1.1572   1.8476   2.4676   2.6976   2.9312   3.6052
     4.6633   5.1332   5.5843   5.7154   5.9085

          k = 0.2500-0.0000 0.0000 ( 19968 PWs)   bands (ev):

   -46.1781 -44.4613 -44.4327 -43.9151 -43.8313 -43.8036 -43.7457  -3.6719
    -3.4660  -3.3646  -3.2740  -3.2368  -3.1642  -3.0454  -3.0343  -3.0008
    -2.9286  -2.9140  -2.8951  -2.8760  -2.8230  -2.7803  -2.7279  -2.6353
    -2.5287  -2.4534  -2.4020  -2.3684  -2.3464  -2.3200  -2.3189  -2.2712
    -2.2528  -2.2461  -2.2109  -2.0601  -1.9653  -1.8586  -1.6039  -1.5729
    -0.5966   0.6050   1.7785   2.9389   3.6605   3.8381   4.4520   5.1674
     5.3483   5.4670   5.5185   5.9216   5.9670

          k = 0.2500 0.0884 0.0000 ( 19915 PWs)   bands (ev):

   -46.1780 -44.4612 -44.4326 -43.9150 -43.8311 -43.8034 -43.7456  -3.5848
    -3.4077  -3.3841  -3.2000  -3.1756  -3.1686  -3.0524  -3.0443  -2.9873
    -2.9425  -2.9046  -2.8851  -2.8211  -2.7921  -2.7864  -2.7342  -2.6273
    -2.5160  -2.4575  -2.4394  -2.3645  -2.3463  -2.3155  -2.2935  -2.2729
    -2.2463  -2.2189  -2.1982  -2.0819  -1.9934  -1.9344  -1.6918  -1.4856
    -0.4503   0.7377   1.8615   2.6650   3.3688   3.5866   3.8164   4.3059
     5.0020   5.2068   5.3700   5.8076   6.2800

          k = 0.2500 0.1768 0.0000 ( 19923 PWs)   bands (ev):

   -46.1780 -44.4611 -44.4325 -43.9149 -43.8310 -43.8034 -43.7456  -3.3975
    -3.3450  -3.2467  -3.1287  -3.1207  -3.0863  -3.0716  -3.0021  -2.9849
    -2.9624  -2.8675  -2.8600  -2.7935  -2.7739  -2.7098  -2.7057  -2.6075
    -2.5339  -2.4874  -2.4271  -2.3794  -2.3612  -2.2994  -2.2538  -2.2423
    -2.2274  -2.1985  -2.1660  -2.1451  -2.0955  -1.9426  -1.8774  -1.1483
    -0.0627   1.0205   1.2674   1.9713   2.7172   2.9176   3.6105   3.7760
     4.2718   4.6008   5.2280   5.9898   6.1776

          k = 0.2500 0.2652 0.0000 ( 19896 PWs)   bands (ev):

   -46.1779 -44.4610 -44.4325 -43.9148 -43.8309 -43.8034 -43.7456  -3.2710
    -3.2679  -3.1019  -3.0942  -3.0792  -3.0503  -3.0320  -2.9846  -2.9665
    -2.8708  -2.8576  -2.8086  -2.7923  -2.7143  -2.6796  -2.6122  -2.5768
    -2.5401  -2.5168  -2.4286  -2.4146  -2.3912  -2.3551  -2.3336  -2.2774
    -2.2502  -2.2304  -2.2183  -2.1934  -2.1573  -1.7737  -1.3641  -0.5596
     0.0264   0.4643   0.5252   1.5962   2.0661   2.5619   3.1262   3.5958
     4.1810   4.6731   4.9684   5.6213   6.7053

          k = 0.2500-0.3536 0.0000 ( 19900 PWs)   bands (ev):

   -46.1779 -44.4610 -44.4324 -43.9148 -43.8308 -43.8034 -43.7456  -3.2354
    -3.2194  -3.1039  -3.0992  -3.0463  -3.0376  -3.0020  -3.0002  -2.9017
    -2.8982  -2.7939  -2.7693  -2.6968  -2.6769  -2.6159  -2.5977  -2.5888
    -2.5667  -2.5405  -2.5122  -2.4311  -2.4155  -2.3986  -2.3785  -2.3227
    -2.3111  -2.2713  -2.2255  -2.1770  -2.1770  -1.0575  -1.0272  -0.5316
    -0.4965   0.2553   0.2609   1.5004   1.7285   2.6184   2.7925   3.6675
     4.0220   4.6164   5.1983   5.6490   6.2869

          k = 0.2500-0.2652 0.0000 ( 19896 PWs)   bands (ev):

   -46.1779 -44.4610 -44.4325 -43.9148 -43.8309 -43.8034 -43.7456  -3.2710
    -3.2679  -3.1019  -3.0942  -3.0792  -3.0503  -3.0320  -2.9846  -2.9665
    -2.8708  -2.8576  -2.8086  -2.7923  -2.7143  -2.6796  -2.6122  -2.5768
    -2.5401  -2.5168  -2.4286  -2.4146  -2.3912  -2.3551  -2.3336  -2.2774
    -2.2502  -2.2304  -2.2183  -2.1934  -2.1573  -1.7737  -1.3641  -0.5596
     0.0264   0.4643   0.5252   1.5962   2.0661   2.5619   3.1262   3.5958
     4.1810   4.6731   4.9684   5.6213   6.7053

          k = 0.2500-0.1768 0.0000 ( 19923 PWs)   bands (ev):

   -46.1780 -44.4611 -44.4325 -43.9149 -43.8310 -43.8034 -43.7456  -3.3975
    -3.3450  -3.2467  -3.1287  -3.1207  -3.0863  -3.0716  -3.0021  -2.9849
    -2.9624  -2.8675  -2.8600  -2.7935  -2.7739  -2.7098  -2.7057  -2.6075
    -2.5339  -2.4874  -2.4271  -2.3794  -2.3612  -2.2994  -2.2538  -2.2423
    -2.2274  -2.1985  -2.1660  -2.1451  -2.0955  -1.9426  -1.8774  -1.1483
    -0.0627   1.0205   1.2674   1.9713   2.7172   2.9176   3.6105   3.7760
     4.2718   4.6008   5.2280   5.9898   6.1776

          k = 0.2500-0.0884 0.0000 ( 19915 PWs)   bands (ev):

   -46.1780 -44.4612 -44.4326 -43.9150 -43.8311 -43.8034 -43.7456  -3.5848
    -3.4077  -3.3841  -3.2000  -3.1756  -3.1686  -3.0524  -3.0443  -2.9873
    -2.9425  -2.9046  -2.8851  -2.8211  -2.7921  -2.7864  -2.7342  -2.6273
    -2.5160  -2.4575  -2.4394  -2.3645  -2.3463  -2.3155  -2.2935  -2.2729
    -2.2463  -2.2189  -2.1982  -2.0819  -1.9934  -1.9344  -1.6918  -1.4856
    -0.4503   0.7377   1.8615   2.6650   3.3688   3.5866   3.8164   4.3059
     5.0020   5.2068   5.3700   5.8076   6.2800

          k = 0.3750-0.0000 0.0000 ( 19934 PWs)   bands (ev):

   -46.1765 -44.4593 -44.4308 -43.9131 -43.8292 -43.8015 -43.7436  -3.5419
    -3.4553  -3.3661  -3.3618  -3.2953  -3.2315  -3.2249  -3.2181  -3.1666
    -3.0921  -3.0452  -3.0347  -2.8792  -2.7977  -2.7724  -2.7406  -2.7125
    -2.5846  -2.5631  -2.4812  -2.4810  -2.2573  -2.2329  -2.1004  -2.0124
    -1.9329  -1.8248  -1.8133  -1.7327  -1.5522  -1.2725  -0.9485  -0.3761
     0.5518   1.6825   2.7478   2.8764   3.1467   3.7576   4.0926   4.5837
     5.0176   5.3865   5.4349   5.9767   6.1753

          k = 0.3750 0.0884 0.0000 ( 19943 PWs)   bands (ev):

   -46.1765 -44.4593 -44.4308 -43.9131 -43.8292 -43.8015 -43.7436  -3.4641
    -3.3978  -3.3718  -3.3593  -3.3000  -3.2499  -3.2113  -3.1630  -3.0991
    -3.0917  -3.0670  -3.0128  -2.8345  -2.8152  -2.7465  -2.6848  -2.6781
    -2.6064  -2.5185  -2.4782  -2.4574  -2.3578  -2.1558  -2.1217  -2.0714
    -1.9673  -1.8296  -1.8207  -1.7248  -1.6195  -1.2063  -0.8991  -0.3164
     0.6386   1.7825   2.8246   2.9320   3.1686   3.6535   3.8414   4.2399
     4.5052   4.5924   5.1687   5.9134   6.4338

          k = 0.3750 0.1768 0.0000 ( 19944 PWs)   bands (ev):

   -46.1765 -44.4593 -44.4308 -43.9131 -43.8291 -43.8015 -43.7437  -3.3804
    -3.3794  -3.2960  -3.2634  -3.2482  -3.2283  -3.2130  -3.0658  -3.0559
    -3.0307  -3.0252  -2.9774  -2.7912  -2.7644  -2.6986  -2.6364  -2.5824
    -2.5498  -2.5040  -2.4322  -2.4215  -2.3768  -2.2248  -2.1724  -2.1372
    -2.0487  -1.9047  -1.8197  -1.7554  -1.7023  -0.9949  -0.7128  -0.1031
     0.8992   2.0189   2.4315   2.7549   3.0628   3.2024   3.2714   3.4598
     3.6482   4.6119   5.5297   5.8296   5.9207

          k = 0.3750 0.2652 0.0000 ( 19919 PWs)   bands (ev):

   -46.1764 -44.4593 -44.4307 -43.9130 -43.8290 -43.8015 -43.7437  -3.3919
    -3.3870  -3.2574  -3.2526  -3.1689  -3.1601  -3.0903  -3.0318  -3.0070
    -2.9609  -2.9393  -2.8085  -2.7695  -2.7009  -2.6277  -2.6050  -2.5330
    -2.5171  -2.4727  -2.3947  -2.3780  -2.3516  -2.3205  -2.2903  -2.1913
    -2.1272  -1.9010  -1.8789  -1.7898  -1.7486  -0.5836  -0.2874   0.3452
     1.1522   1.2995   1.4947   2.1179   2.6957   2.7709   3.2300   3.4423
     3.8006   4.6386   5.3255   5.8264   6.0318

          k = 0.3750-0.3536 0.0000 ( 19954 PWs)   bands (ev):

   -46.1764 -44.4594 -44.4308 -43.9130 -43.8291 -43.8016 -43.7438  -3.3946
    -3.3926  -3.2594  -3.2566  -3.1221  -3.1123  -3.0776  -3.0674  -2.9511
    -2.9476  -2.7708  -2.7408  -2.7255  -2.6926  -2.6059  -2.5733  -2.5530
    -2.5029  -2.4900  -2.4693  -2.3716  -2.3627  -2.3593  -2.3380  -2.1426
    -2.1123  -1.9206  -1.8772  -1.8062  -1.7889   0.1044   0.1324   0.4476
     0.4795   1.0450   1.0577   1.9559   2.2140   2.9449   3.1000   3.7895
     3.8431   4.4682   5.1396   5.9064   5.9320

          k = 0.3750-0.2652 0.0000 ( 19919 PWs)   bands (ev):

   -46.1764 -44.4593 -44.4307 -43.9130 -43.8290 -43.8015 -43.7437  -3.3919
    -3.3870  -3.2574  -3.2526  -3.1689  -3.1601  -3.0903  -3.0318  -3.0070
    -2.9609  -2.9393  -2.8085  -2.7695  -2.7009  -2.6277  -2.6050  -2.5330
    -2.5171  -2.4727  -2.3947  -2.3780  -2.3516  -2.3205  -2.2903  -2.1913
    -2.1272  -1.9010  -1.8789  -1.7898  -1.7486  -0.5836  -0.2874   0.3452
     1.1522   1.2995   1.4947   2.1179   2.6957   2.7709   3.2300   3.4423
     3.8006   4.6386   5.3255   5.8264   6.0317

          k = 0.3750-0.1768 0.0000 ( 19944 PWs)   bands (ev):

   -46.1765 -44.4593 -44.4308 -43.9131 -43.8291 -43.8015 -43.7437  -3.3804
    -3.3794  -3.2960  -3.2634  -3.2482  -3.2283  -3.2130  -3.0658  -3.0559
    -3.0307  -3.0252  -2.9774  -2.7912  -2.7644  -2.6986  -2.6364  -2.5824
    -2.5498  -2.5040  -2.4322  -2.4215  -2.3768  -2.2248  -2.1724  -2.1372
    -2.0487  -1.9047  -1.8197  -1.7554  -1.7023  -0.9949  -0.7128  -0.1031
     0.8992   2.0189   2.4315   2.7549   3.0628   3.2024   3.2714   3.4598
     3.6482   4.6119   5.5297   5.8296   5.9207

          k = 0.3750-0.0884 0.0000 ( 19943 PWs)   bands (ev):

   -46.1765 -44.4593 -44.4308 -43.9131 -43.8292 -43.8015 -43.7436  -3.4641
    -3.3978  -3.3718  -3.3593  -3.3000  -3.2499  -3.2113  -3.1630  -3.0991
    -3.0917  -3.0670  -3.0128  -2.8345  -2.8152  -2.7465  -2.6848  -2.6781
    -2.6064  -2.5185  -2.4782  -2.4574  -2.3578  -2.1558  -2.1217  -2.0714
    -1.9673  -1.8296  -1.8207  -1.7248  -1.6195  -1.2063  -0.8991  -0.3164
     0.6386   1.7825   2.8246   2.9320   3.1686   3.6535   3.8414   4.2399
     4.5052   4.5924   5.1687   5.9134   6.4338

          k =-0.5000 0.0000 0.0000 ( 19974 PWs)   bands (ev):

   -46.1759 -44.4586 -44.4300 -43.9123 -43.8285 -43.8007 -43.7428  -3.5022
    -3.4827  -3.4819  -3.4487  -3.3362  -3.3282  -3.2649  -3.2117  -3.1222
    -3.1198  -3.1175  -3.0499  -2.8801  -2.8791  -2.8677  -2.7189  -2.6976
    -2.6798  -2.6381  -2.5606  -2.5605  -2.2452  -2.1813  -2.0699  -1.9335
    -1.8586  -1.8123  -1.5917  -1.5442  -1.4818   0.3824   0.6025   0.7543
     1.0343   1.2399   1.7500   1.9904   2.8057   2.9930   4.0432   4.1061
     5.0730   5.6395   5.6515   6.6667   6.7355

          k =-0.5000 0.0884 0.0000 ( 19948 PWs)   bands (ev):

   -46.1758 -44.4586 -44.4300 -43.9123 -43.8284 -43.8007 -43.7428  -3.4890
    -3.4816  -3.4267  -3.3835  -3.3535  -3.3165  -3.2661  -3.1543  -3.1537
    -3.0924  -3.0538  -3.0420  -2.9132  -2.8384  -2.8186  -2.6892  -2.6684
    -2.6483  -2.6040  -2.5561  -2.5308  -2.3429  -2.1012  -2.0895  -2.0140
    -1.9435  -1.7152  -1.6830  -1.5208  -1.4842   0.4176   0.6365   0.8681
     1.0780   1.3015   1.8182   1.9855   2.8949   2.9182   3.9021   4.1979
     4.8578   5.4028   5.5893   5.8614   6.2235

          k =-0.5000 0.1768 0.0000 ( 19956 PWs)   bands (ev):

   -46.1758 -44.4586 -44.4300 -43.9123 -43.8284 -43.8008 -43.7429  -3.4940
    -3.4910  -3.3619  -3.3310  -3.2596  -3.2108  -3.2074  -3.1427  -3.1233
    -3.0109  -2.9839  -2.9507  -2.8819  -2.8584  -2.6782  -2.6370  -2.6020
    -2.5891  -2.5467  -2.5004  -2.4912  -2.3666  -2.1743  -2.1571  -2.1017
    -1.9981  -1.8198  -1.6132  -1.5492  -1.4838   0.5496   0.7650   1.1985
     1.2244   1.4927   1.9869   1.9999   2.7176   3.0494   3.4961   3.7823
     4.1588   4.3279   4.9884   5.5133   5.6300

          k =-0.5000 0.2652 0.0000 ( 19924 PWs)   bands (ev):

   -46.1757 -44.4586 -44.4300 -43.9122 -43.8282 -43.8007 -43.7429  -3.5024
    -3.4967  -3.3613  -3.3499  -3.1718  -3.1265  -3.1150  -3.1081  -2.9848
    -2.9207  -2.9105  -2.8799  -2.8009  -2.7570  -2.6235  -2.6035  -2.5503
    -2.5481  -2.5089  -2.4616  -2.4474  -2.3312  -2.3055  -2.2688  -2.1450
    -2.0343  -1.7114  -1.6950  -1.5486  -1.5017   0.8568   1.0701   1.5121
     1.7114   1.8247   2.0388   2.1350   2.4223   2.4634   2.6569   2.9419
     3.2847   4.0592   4.5196   4.9662   5.6014

          k =-0.5000-0.3536 0.0000 ( 19904 PWs)   bands (ev):

   -46.1757 -44.4585 -44.4299 -43.9122 -43.8282 -43.8007 -43.7429  -3.5033
    -3.5020  -3.3601  -3.3568  -3.1551  -3.1460  -3.0749  -3.0672  -2.8944
    -2.8838  -2.8610  -2.8304  -2.7274  -2.6889  -2.5956  -2.5884  -2.5574
    -2.5495  -2.5143  -2.4695  -2.4406  -2.4318  -2.3428  -2.3186  -2.0340
    -2.0002  -1.7312  -1.7019  -1.5419  -1.5224   1.4449   1.4522   1.5972
     1.7047   1.8545   2.0715   2.1453   2.1537   2.2700   2.4181   2.4438
     2.6025   4.1465   4.3594   4.6155   5.5885

     the Fermi energy is     1.9516 ev

!    total energy              =    -609.91486673 Ry
     estimated scf accuracy    <       0.00000078 Ry
     smearing contrib. (-TS)   =      -0.00191820 Ry
     internal energy E=F+TS    =    -609.91294853 Ry

     The total energy is F=E-TS. E is the sum of the following terms:
     one-electron contribution =   -6071.43852327 Ry
     hartree contribution      =    3076.14844637 Ry
     xc contribution           =    -159.35002483 Ry
     ewald contribution        =    2544.95965614 Ry
     DFT-D3 Dispersion         =      -0.23250294 Ry

     convergence has been achieved in   7 iterations

     negative rho (up, down):  1.472E-05 0.000E+00

     Forces acting on atoms (cartesian axes, Ry/au):

     atom    1 type  1   force =     0.00000229   -0.00000108    0.02268480
     atom    2 type  1   force =     0.00000037    0.00000182    0.00242193
     atom    3 type  1   force =    -0.00000167   -0.00000055   -0.00356807
     atom    4 type  1   force =     0.00000009   -0.00000088    0.00010726
     atom    5 type  1   force =    -0.00000007    0.00000078    0.00362900
     atom    6 type  1   force =    -0.00000022   -0.00000092    0.00909826
     atom    7 type  2   force =    -0.00000033   -0.00000001   -0.05612987
     atom    8 type  2   force =     0.00000041    0.00000067   -0.00182244
     atom    9 type  2   force =    -0.00000002    0.00000007   -0.00052027
     atom   10 type  2   force =     0.00000009    0.00000011   -0.00099939
     atom   11 type  2   force =     0.00000023    0.00000006   -0.00300329
     atom   12 type  2   force =    -0.00000010    0.00000032   -0.00599056
     atom   13 type  2   force =    -0.00000105   -0.00000040    0.03409264
     The non-local contrib.  to forces
     atom    1 type  1   force =     0.00000100   -0.00000028    0.01951202
     atom    2 type  1   force =    -0.00000134    0.00000038   -0.00428007
     atom    3 type  1   force =    -0.00000140   -0.00000076    0.00242511
     atom    4 type  1   force =    -0.00000027   -0.00000063    0.00511410
     atom    5 type  1   force =    -0.00000046   -0.00000005   -0.00297675
     atom    6 type  1   force =    -0.00000031   -0.00000085   -0.05274604
     atom    7 type  2   force =    -0.00000483   -0.00000004    0.03376334
     atom    8 type  2   force =    -0.00000488    0.00000053   -0.00230424
     atom    9 type  2   force =    -0.00000404   -0.00000001   -0.00265547
     atom   10 type  2   force =    -0.00000399    0.00000003   -0.00135578
     atom   11 type  2   force =    -0.00000412   -0.00000005   -0.00587301
     atom   12 type  2   force =    -0.00000499    0.00000003   -0.03784562
     atom   13 type  2   force =    -0.00001024   -0.00000040    0.02333296
     The ionic contribution  to forces
     atom    1 type  1   force =     0.00000071   -0.00000294  104.49397184
     atom    2 type  1   force =     0.00000038    0.00001052   62.36284777
     atom    3 type  1   force =     0.00000003   -0.00000310   17.27519677
     atom    4 type  1   force =     0.00000002    0.00000438  -26.50118052
     atom    5 type  1   force =     0.00000035   -0.00000324  -70.46737567
     atom    6 type  1   force =     0.00000001    0.00000307 -112.41520233
     atom    7 type  2   force =    -0.00000049   -0.00000350   29.63060625
     atom    8 type  2   force =     0.00000059   -0.00000133   16.49757711
     atom    9 type  2   force =    -0.00000149    0.00000015    4.76878009
     atom   10 type  2   force =     0.00000027   -0.00000182   -7.23524926
     atom   11 type  2   force =    -0.00000047    0.00000059  -19.17785183
     atom   12 type  2   force =     0.00000002   -0.00000187  -31.38958248
     atom   13 type  2   force =     0.00000006   -0.00000090   32.15746225
     The local contribution  to forces
     atom    1 type  1   force =     0.00000111    0.00000163 -104.47945889
     atom    2 type  1   force =     0.00000080   -0.00001148  -62.35567065
     atom    3 type  1   force =    -0.00000066    0.00000318  -17.28149363
     atom    4 type  1   force =    -0.00000019   -0.00000439   26.49691436
     atom    5 type  1   force =     0.00000020    0.00000372   70.47047954
     atom    6 type  1   force =     0.00000019   -0.00000345  112.46725302
     atom    7 type  2   force =     0.00000486    0.00000302  -29.71859917
     atom    8 type  2   force =     0.00000441    0.00000201  -16.49631436
     atom    9 type  2   force =     0.00000581   -0.00000016   -4.76652373
     atom   10 type  2   force =     0.00000385    0.00000164    7.23562267
     atom   11 type  2   force =     0.00000490   -0.00000055   19.17897031
     atom   12 type  2   force =     0.00000494    0.00000196   31.41897587
     atom   13 type  2   force =     0.00000906    0.00000095  -32.14609690
     The core correction contribution to forces
     atom    1 type  1   force =     0.00000009   -0.00000011   -0.00577398
     atom    2 type  1   force =    -0.00000001   -0.00000002   -0.00059000
     atom    3 type  1   force =     0.00000001   -0.00000000    0.00060384
     atom    4 type  1   force =    -0.00000004   -0.00000002    0.00000713
     atom    5 type  1   force =    -0.00000000    0.00000000   -0.00015729
     atom    6 type  1   force =     0.00000002    0.00000000    0.00451132
     atom    7 type  2   force =     0.00000000    0.00000000    0.00000000
     atom    8 type  2   force =     0.00000000    0.00000000    0.00000000
     atom    9 type  2   force =     0.00000000    0.00000000    0.00000000
     atom   10 type  2   force =     0.00000000    0.00000000    0.00000000
     atom   11 type  2   force =     0.00000000    0.00000000    0.00000000
     atom   12 type  2   force =     0.00000000    0.00000000    0.00000000
     atom   13 type  2   force =     0.00000000    0.00000000    0.00000000
     The Hubbard contrib.    to forces
     atom    1 type  1   force =     0.00000000    0.00000000    0.00000000
     atom    2 type  1   force =     0.00000000    0.00000000    0.00000000
     atom    3 type  1   force =     0.00000000    0.00000000    0.00000000
     atom    4 type  1   force =     0.00000000    0.00000000    0.00000000
     atom    5 type  1   force =     0.00000000    0.00000000    0.00000000
     atom    6 type  1   force =     0.00000000    0.00000000    0.00000000
     atom    7 type  2   force =     0.00000000    0.00000000    0.00000000
     atom    8 type  2   force =     0.00000000    0.00000000    0.00000000
     atom    9 type  2   force =     0.00000000    0.00000000    0.00000000
     atom   10 type  2   force =     0.00000000    0.00000000    0.00000000
     atom   11 type  2   force =     0.00000000    0.00000000    0.00000000
     atom   12 type  2   force =     0.00000000    0.00000000    0.00000000
     atom   13 type  2   force =     0.00000000    0.00000000    0.00000000
     The SCF correction term to forces
     atom    1 type  1   force =    -0.00000061    0.00000047    0.00065252
     atom    2 type  1   force =     0.00000057    0.00000229    0.00236890
     atom    3 type  1   force =     0.00000035   -0.00000001   -0.00023939
     atom    4 type  1   force =     0.00000059   -0.00000036   -0.00127794
     atom    5 type  1   force =    -0.00000014    0.00000021    0.00004965
     atom    6 type  1   force =    -0.00000012    0.00000016    0.00156414
     atom    7 type  2   force =     0.00000014    0.00000035    0.00004208
     atom    8 type  2   force =     0.00000030   -0.00000067    0.00068921
     atom    9 type  2   force =    -0.00000028   -0.00000005    0.00001489
     atom   10 type  2   force =    -0.00000001    0.00000011   -0.00028796
     atom   11 type  2   force =    -0.00000007   -0.00000007    0.00005229
     atom   12 type  2   force =    -0.00000006    0.00000005    0.00031960
     atom   13 type  2   force =     0.00000008   -0.00000021   -0.00017735

     DFT-D3 dispersion contribution to forces:
     atom    1 type  1   force =     0.00000001    0.00000001   -0.00617714
     atom    2 type  1   force =    -0.00000002   -0.00000002   -0.00221243
     atom    3 type  1   force =     0.00000002    0.00000001   -0.00001918
     atom    4 type  1   force =    -0.00000000   -0.00000000    0.00057172
     atom    5 type  1   force =    -0.00000000    0.00000000    0.00365111
     atom    6 type  1   force =     0.00000000   -0.00000000    0.00375974
     atom    7 type  2   force =     0.00000000    0.00000001   -0.00190078
     atom    8 type  2   force =    -0.00000000   -0.00000001   -0.00142857
     atom    9 type  2   force =     0.00000000    0.00000000   -0.00009446
     atom   10 type  2   force =    -0.00000000    0.00000000    0.00031253
     atom   11 type  2   force =     0.00000000    0.00000000    0.00174054
     atom   12 type  2   force =    -0.00000000    0.00000000    0.00218366
     atom   13 type  2   force =    -0.00000000   -0.00000000   -0.00038673

     Total force =     0.070651     Total SCF correction =     0.003297


     Computing stress (Cartesian axis) and pressure


     negative rho (up, down):  1.472E-05 0.000E+00
          total   stress  (Ry/bohr**3)                   (kbar)     P=      -12.54
  -0.00010050   0.00000000  -0.00000000          -14.78        0.00       -0.00
   0.00000000  -0.00012648   0.00000000            0.00      -18.61        0.00
  -0.00000000   0.00000000  -0.00002884           -0.00        0.00       -4.24

     Energy error            =      6.2E-03 Ry
     Gradient error          =      5.6E-02 Ry/Bohr

     number of scf cycles    =   2
     number of bfgs steps    =   1

     energy             old  =    -609.9086354698 Ry
     energy             new  =    -609.9148667317 Ry

     CASE: energy            _new < energy            _old


     WARNING: bfgs curvature condition failed, Theta= 0.928
     new trust radius        =       0.0714389581 bohr
     new conv_thr            =       0.0000005613 Ry


ATOMIC_POSITIONS (angstrom)
Ag            0.7806853864        1.1040566164       20.8724479011
Ag            0.7806822437        3.3121663064       18.8345432711
Ag            0.7806849042        1.1040552343       16.6202096817
Ag            0.7806848900        3.3121653864       14.4167209542
Ag            0.7806846608        1.1040561965       12.2126849355
Ag            0.7806850962        3.3121655207       10.0108604072
Li            2.3420535690        3.3121695561       21.1130708690
Li            2.3420537090        1.1040542437       18.7576111454
Li            2.3420554498        3.3121667909       16.6236479201
Li            2.3420551652        1.1040555509       14.4149781151
Li            2.3420553837        3.3121667542       12.2042207132
Li            2.3420551444        1.1040558776        9.9926295457
Li            2.3420534031        3.3121694895       23.2302124036



     Writing config-only to output data dir ./LiAg_mp-2426_110_ontop_1/LiAg_mp-2426_110_ontop_1.save/
     NEW-OLD atomic charge density approx. for the potential

     negative rho (up, down):  1.555E-05 0.000E+00

     total cpu time spent up to now is       27.9 secs

     per-process dynamical memory:   214.5 Mb

     Self-consistent Calculation

     iteration #  1     ecut=    55.00 Ry     beta= 0.30
     Davidson diagonalization with overlap
     ethr =  1.00E-06,  avg # of iterations =  6.2

     negative rho (up, down):  1.493E-05 0.000E+00

     total cpu time spent up to now is       29.2 secs

     total energy              =    -609.92066813 Ry
     estimated scf accuracy    <       0.00020467 Ry

     iteration #  2     ecut=    55.00 Ry     beta= 0.30
     Davidson diagonalization with overlap
     ethr =  2.35E-07,  avg # of iterations =  2.5

     negative rho (up, down):  3.122E-05 0.000E+00

     total cpu time spent up to now is       29.8 secs

     total energy              =    -609.92057057 Ry
     estimated scf accuracy    <       0.00292918 Ry

     iteration #  3     ecut=    55.00 Ry     beta= 0.30
     Davidson diagonalization with overlap
     ethr =  2.35E-07,  avg # of iterations =  1.7

     negative rho (up, down):  4.712E-05 0.000E+00

     total cpu time spent up to now is       30.3 secs

     total energy              =    -609.92064436 Ry
     estimated scf accuracy    <       0.00217751 Ry

     iteration #  4     ecut=    55.00 Ry     beta= 0.30
     Davidson diagonalization with overlap
     ethr =  2.35E-07,  avg # of iterations =  1.6

     negative rho (up, down):  4.572E-05 0.000E+00

[...]
    -2.4622  -2.4374  -2.4140  -2.3793  -2.2683  -2.1354  -2.1008  -1.9935
    -1.9351  -1.8355  -1.8082  -1.7011  -1.5893  -1.1608  -0.8155  -0.2239
     0.4888   1.7804   2.8822   3.0471   3.2857   3.5709   3.9622   4.2468
     4.5681   4.7483   5.3334   5.9100   6.5816

          k = 0.3750 0.1768 0.0000 ( 19944 PWs)   bands (ev):

   -45.4906 -44.5014 -44.0854 -43.9868 -43.8095 -43.7575 -43.7524  -3.3590
    -3.3455  -3.3174  -3.2299  -3.2201  -3.1918  -3.1532  -3.0540  -3.0065
    -2.9712  -2.9192  -2.8549  -2.6503  -2.6245  -2.5718  -2.5504  -2.4666
    -2.4590  -2.4208  -2.4023  -2.3735  -2.2514  -2.1891  -2.1326  -2.0567
    -1.9608  -1.8937  -1.8052  -1.7223  -1.6686  -0.9459  -0.6215   0.0023
     0.7397   2.0017   2.5029   3.0503   3.1139   3.2447   3.3027   3.5597
     3.6972   4.7181   5.5192   5.7905   6.1484

          k = 0.3750 0.2652 0.0000 ( 19919 PWs)   bands (ev):

   -45.4906 -44.5014 -44.0851 -43.9870 -43.8094 -43.7563 -43.7536  -3.3724
    -3.3547  -3.2401  -3.2214  -3.1769  -3.1257  -3.0269  -2.9822  -2.9452
    -2.9013  -2.8225  -2.7346  -2.6660  -2.5989  -2.5708  -2.5239  -2.4740
    -2.4447  -2.4215  -2.3726  -2.3343  -2.2942  -2.2100  -2.1762  -2.1212
    -1.9921  -1.8575  -1.8254  -1.7510  -1.7152  -0.5313  -0.1854   0.4542
     1.1059   1.2378   1.6081   2.3457   2.6904   2.7987   3.3140   3.4984
     3.9313   4.8063   5.3702   5.8435   6.0671

          k = 0.3750-0.3536 0.0000 ( 19954 PWs)   bands (ev):

   -45.4906 -44.5014 -44.0850 -43.9872 -43.8094 -43.7551 -43.7549  -3.3758
    -3.3626  -3.2366  -3.2358  -3.1111  -3.0868  -3.0365  -2.9533  -2.8800
    -2.8340  -2.7723  -2.6673  -2.6507  -2.5987  -2.5829  -2.5478  -2.5168
    -2.4487  -2.3896  -2.3694  -2.3629  -2.3133  -2.2547  -2.1778  -2.1027
    -1.9248  -1.9005  -1.8070  -1.7861  -1.7252   0.1001   0.2573   0.4856
     0.6443   1.0923   1.1583   1.9820   2.2011   2.9226   3.2249   3.7984
     4.0154   4.7672   5.2169   5.8712   5.8918

          k = 0.3750-0.2652 0.0000 ( 19919 PWs)   bands (ev):

   -45.4906 -44.5014 -44.0851 -43.9870 -43.8094 -43.7563 -43.7536  -3.3724
    -3.3547  -3.2401  -3.2214  -3.1769  -3.1257  -3.0269  -2.9822  -2.9452
    -2.9013  -2.8225  -2.7346  -2.6660  -2.5989  -2.5708  -2.5239  -2.4740
    -2.4447  -2.4215  -2.3726  -2.3343  -2.2942  -2.2100  -2.1762  -2.1212
    -1.9921  -1.8575  -1.8254  -1.7510  -1.7152  -0.5313  -0.1854   0.4542
     1.1059   1.2378   1.6081   2.3457   2.6904   2.7987   3.3140   3.4984
     3.9313   4.8063   5.3702   5.8435   6.0671

          k = 0.3750-0.1768 0.0000 ( 19944 PWs)   bands (ev):

   -45.4906 -44.5014 -44.0854 -43.9868 -43.8095 -43.7575 -43.7524  -3.3590
    -3.3455  -3.3174  -3.2299  -3.2201  -3.1918  -3.1532  -3.0540  -3.0065
    -2.9712  -2.9192  -2.8549  -2.6503  -2.6245  -2.5718  -2.5504  -2.4666
    -2.4590  -2.4208  -2.4023  -2.3735  -2.2514  -2.1891  -2.1326  -2.0567
    -1.9608  -1.8937  -1.8052  -1.7223  -1.6686  -0.9459  -0.6215   0.0023
     0.7397   2.0017   2.5029   3.0503   3.1139   3.2447   3.3027   3.5597
     3.6972   4.7181   5.5192   5.7905   6.1484

          k = 0.3750-0.0884 0.0000 ( 19943 PWs)   bands (ev):

   -45.4907 -44.5014 -44.0857 -43.9866 -43.8095 -43.7583 -43.7515  -3.4759
    -3.3483  -3.3345  -3.3260  -3.2745  -3.2007  -3.1756  -3.1449  -3.0667
    -3.0247  -2.9516  -2.8971  -2.7039  -2.6653  -2.6198  -2.5519  -2.5317
    -2.4622  -2.4374  -2.4140  -2.3793  -2.2683  -2.1354  -2.1008  -1.9935
    -1.9351  -1.8355  -1.8082  -1.7011  -1.5893  -1.1608  -0.8155  -0.2239
     0.4888   1.7804   2.8822   3.0471   3.2857   3.5709   3.9622   4.2468
     4.5681   4.7483   5.3334   5.9100   6.5816

          k =-0.5000 0.0000 0.0000 ( 19974 PWs)   bands (ev):

   -45.4901 -44.5007 -44.0851 -43.9858 -43.8088 -43.7579 -43.7504  -3.5167
    -3.4581  -3.4351  -3.3845  -3.2955  -3.2754  -3.2489  -3.1774  -3.0662
    -3.0199  -3.0132  -3.0107  -2.7648  -2.7412  -2.6853  -2.6154  -2.5773
    -2.5352  -2.5229  -2.5175  -2.3858  -2.1654  -2.1269  -2.0278  -1.9283
    -1.8574  -1.8028  -1.5816  -1.5218  -1.4464   0.4312   0.6803   0.7906
     1.1116   1.3206   1.8969   1.9741   2.5922   2.7532   4.0947   4.1205
     5.4255   5.7597   5.7683   6.7226   7.0832

          k =-0.5000 0.0884 0.0000 ( 19948 PWs)   bands (ev):

   -45.4900 -44.5007 -44.0850 -43.9858 -43.8087 -43.7575 -43.7507  -3.4561
    -3.4500  -3.4496  -3.3133  -3.3022  -3.2771  -3.2419  -3.1266  -3.0889
    -3.0201  -3.0009  -2.9373  -2.7471  -2.6925  -2.6760  -2.6325  -2.5513
    -2.5261  -2.5217  -2.4924  -2.3434  -2.2287  -2.0976  -2.0769  -1.9499
    -1.9043  -1.7174  -1.6848  -1.4847  -1.4562   0.4671   0.7211   0.9070
     1.1587   1.3792   1.9624   2.0128   2.5497   2.8577   3.9556   4.1957
     5.0954   5.4897   5.8258   5.9877   6.2977

          k =-0.5000 0.1768 0.0000 ( 19956 PWs)   bands (ev):

   -45.4900 -44.5007 -44.0847 -43.9861 -43.8087 -43.7567 -43.7516  -3.4718
    -3.4542  -3.3278  -3.2946  -3.2936  -3.1795  -3.1384  -3.0686  -3.0315
    -3.0084  -2.9381  -2.8421  -2.7233  -2.7035  -2.6252  -2.5530  -2.5474
    -2.4807  -2.4469  -2.4315  -2.3906  -2.2349  -2.1600  -2.1048  -2.0343
    -1.9018  -1.8019  -1.6262  -1.5017  -1.4585   0.5995   0.8666   1.2439
     1.3190   1.5597   2.1062   2.1449   2.4516   3.0853   3.5189   3.7912
     4.2850   4.4033   5.0701   5.5090   6.0696

          k =-0.5000 0.2652 0.0000 ( 19924 PWs)   bands (ev):

   -45.4899 -44.5006 -44.0843 -43.9863 -43.8086 -43.7554 -43.7528  -3.4815
    -3.4656  -3.3396  -3.3183  -3.1407  -3.0885  -3.0816  -3.0145  -2.9381
    -2.9168  -2.7971  -2.7571  -2.7141  -2.6636  -2.6261  -2.5331  -2.5291
    -2.4545  -2.4464  -2.4059  -2.3979  -2.2722  -2.1724  -2.1504  -2.0885
    -1.9010  -1.6764  -1.6513  -1.5217  -1.4742   0.9053   1.1912   1.6346
     1.7704   1.8638   2.1856   2.3181   2.3873   2.5112   2.7284   2.9571
     3.3748   4.0248   4.5428   4.9755   5.6923

          k =-0.5000-0.3536 0.0000 ( 19904 PWs)   bands (ev):

   -45.4898 -44.5006 -44.0841 -43.9864 -43.8085 -43.7542 -43.7540  -3.4828
    -3.4740  -3.3359  -3.3334  -3.0969  -3.0648  -3.0457  -3.0115  -2.8463
    -2.8200  -2.7708  -2.7643  -2.6439  -2.6225  -2.6193  -2.5691  -2.5521
    -2.5359  -2.4350  -2.3831  -2.3746  -2.3458  -2.2178  -2.0893  -2.0781
    -1.8035  -1.7246  -1.6346  -1.5013  -1.5002   1.4318   1.5811   1.6766
     1.9655   1.9949   2.0800   2.2525   2.2756   2.3293   2.4102   2.5593
     2.6509   4.1112   4.2386   4.7423   5.6265

     the Fermi energy is     2.0100 ev

!    total energy              =    -609.95600814 Ry
     estimated scf accuracy    <          6.9E-09 Ry
     smearing contrib. (-TS)   =      -0.00148799 Ry
     internal energy E=F+TS    =    -609.95452015 Ry

     The total energy is F=E-TS. E is the sum of the following terms:
     one-electron contribution =   -5899.04237067 Ry
     hartree contribution      =    2990.15694286 Ry
     xc contribution           =    -159.32676849 Ry
     ewald contribution        =    2458.48758570 Ry
     DFT-D3 Dispersion         =      -0.22990955 Ry

     convergence has been achieved in   7 iterations

     negative rho (up, down):  1.439E-05 0.000E+00

     Forces acting on atoms (cartesian axes, Ry/au):

     atom    1 type  1   force =    -0.00000002    0.00000001    0.00003419
     atom    2 type  1   force =     0.00000003    0.00000003   -0.00016022
     atom    3 type  1   force =    -0.00000000   -0.00000011    0.00034838
     atom    4 type  1   force =    -0.00000006    0.00000004   -0.00084479
     atom    5 type  1   force =     0.00000001   -0.00000005    0.00024747
     atom    6 type  1   force =    -0.00000007    0.00000012   -0.00060004
     atom    7 type  2   force =    -0.00000006    0.00000001    0.00078739
     atom    8 type  2   force =    -0.00000005   -0.00000007    0.00029700
     atom    9 type  2   force =     0.00000009   -0.00000001   -0.00051388
     atom   10 type  2   force =     0.00000004    0.00000002   -0.00010635
     atom   11 type  2   force =     0.00000012   -0.00000002    0.00031052
     atom   12 type  2   force =    -0.00000001    0.00000005   -0.00011975
     atom   13 type  2   force =    -0.00000002   -0.00000002    0.00032007
     The non-local contrib.  to forces
     atom    1 type  1   force =     0.00000020   -0.00000000   -0.00185371
     atom    2 type  1   force =     0.00000005    0.00000010   -0.00160377
     atom    3 type  1   force =    -0.00000005   -0.00000013   -0.00413077
     atom    4 type  1   force =    -0.00000008    0.00000015    0.00182398
     atom    5 type  1   force =     0.00000006   -0.00000002   -0.00071929
     atom    6 type  1   force =    -0.00000009    0.00000017   -0.02851407
     atom    7 type  2   force =    -0.00000518   -0.00000002    0.01703125
     atom    8 type  2   force =    -0.00000736   -0.00000002    0.01066925
     atom    9 type  2   force =    -0.00000599    0.00000001    0.00042438
     atom   10 type  2   force =    -0.00000429   -0.00000000    0.00003648
     atom   11 type  2   force =    -0.00000498   -0.00000001   -0.00409487
     atom   12 type  2   force =    -0.00000662    0.00000006   -0.04157993
     atom   13 type  2   force =    -0.00001396   -0.00000000    0.04622914
     The ionic contribution  to forces
     atom    1 type  1   force =    -0.00000183    0.00000164  102.91510845
     atom    2 type  1   force =     0.00000111    0.00000422   61.19646621
     atom    3 type  1   force =    -0.00000101   -0.00001239   20.14046404
     atom    4 type  1   force =    -0.00000107    0.00001446  -25.33761288
     atom    5 type  1   force =    -0.00000097   -0.00001360  -69.98008339
     atom    6 type  1   force =     0.00000072    0.00000347 -111.55818557
     atom    7 type  2   force =    -0.00000194   -0.00000125   25.56195538
     atom    8 type  2   force =    -0.00000120   -0.00000100   18.77627993
     atom    9 type  2   force =     0.00000178    0.00000346    4.64320951
     atom   10 type  2   force =     0.00000063   -0.00000345   -6.70172931
     atom   11 type  2   force =     0.00000298    0.00000316  -18.70723256
     atom   12 type  2   force =    -0.00000240    0.00000143  -32.14515163
     atom   13 type  2   force =     0.00000321   -0.00000014   31.19651182
     The local contribution  to forces
     atom    1 type  1   force =     0.00000160   -0.00000161 -102.90710505
     atom    2 type  1   force =    -0.00000111   -0.00000419  -61.19240752
     atom    3 type  1   force =     0.00000104    0.00001239  -20.13543670
     atom    4 type  1   force =     0.00000110   -0.00001457   25.33473994
     atom    5 type  1   force =     0.00000090    0.00001364   69.97728264
     atom    6 type  1   force =    -0.00000073   -0.00000374  111.57609213
     atom    7 type  2   force =     0.00000705    0.00000131  -25.57571237
     atom    8 type  2   force =     0.00000849    0.00000095  -18.78568348
     atom    9 type  2   force =     0.00000432   -0.00000347   -4.64333633
     atom   10 type  2   force =     0.00000369    0.00000350    6.70126414
     atom   11 type  2   force =     0.00000211   -0.00000318   18.70979908
     atom   12 type  2   force =     0.00000895   -0.00000140   32.18476354
     atom   13 type  2   force =     0.00001071    0.00000014  -31.24116087
     The core correction contribution to forces
     atom    1 type  1   force =     0.00000001   -0.00000000   -0.00176486
     atom    2 type  1   force =     0.00000000   -0.00000001   -0.00038013
     atom    3 type  1   force =     0.00000000    0.00000001   -0.00043839
     atom    4 type  1   force =     0.00000000   -0.00000001    0.00004750
     atom    5 type  1   force =    -0.00000000    0.00000001    0.00042294
     atom    6 type  1   force =    -0.00000000   -0.00000000    0.00523327
     atom    7 type  2   force =     0.00000000    0.00000000    0.00000000
     atom    8 type  2   force =     0.00000000    0.00000000    0.00000000
     atom    9 type  2   force =     0.00000000    0.00000000    0.00000000
     atom   10 type  2   force =     0.00000000    0.00000000    0.00000000
     atom   11 type  2   force =     0.00000000    0.00000000    0.00000000
     atom   12 type  2   force =     0.00000000    0.00000000    0.00000000
     atom   13 type  2   force =     0.00000000    0.00000000    0.00000000
     The Hubbard contrib.    to forces
     atom    1 type  1   force =     0.00000000    0.00000000    0.00000000
     atom    2 type  1   force =     0.00000000    0.00000000    0.00000000
     atom    3 type  1   force =     0.00000000    0.00000000    0.00000000
     atom    4 type  1   force =     0.00000000    0.00000000    0.00000000
     atom    5 type  1   force =     0.00000000    0.00000000    0.00000000
     atom    6 type  1   force =     0.00000000    0.00000000    0.00000000
     atom    7 type  2   force =     0.00000000    0.00000000    0.00000000
     atom    8 type  2   force =     0.00000000    0.00000000    0.00000000
     atom    9 type  2   force =     0.00000000    0.00000000    0.00000000
     atom   10 type  2   force =     0.00000000    0.00000000    0.00000000
     atom   11 type  2   force =     0.00000000    0.00000000    0.00000000
     atom   12 type  2   force =     0.00000000    0.00000000    0.00000000
     atom   13 type  2   force =     0.00000000    0.00000000    0.00000000
     The SCF correction term to forces
     atom    1 type  1   force =    -0.00000001   -0.00000000    0.00009413
     atom    2 type  1   force =    -0.00000003   -0.00000008   -0.00003383
     atom    3 type  1   force =     0.00000000    0.00000000    0.00001274
     atom    4 type  1   force =    -0.00000002    0.00000005   -0.00000194
     atom    5 type  1   force =     0.00000001   -0.00000008    0.00006036
     atom    6 type  1   force =     0.00000001    0.00000025   -0.00006512
     atom    7 type  2   force =     0.00000002   -0.00000000    0.00000858
     atom    8 type  2   force =    -0.00000000    0.00000001    0.00000624
     atom    9 type  2   force =    -0.00000002   -0.00000001   -0.00000684
     atom   10 type  2   force =    -0.00000000   -0.00000001    0.00002038
     atom   11 type  2   force =    -0.00000000    0.00000001   -0.00002566
     atom   12 type  2   force =     0.00000003   -0.00000003    0.00000171
     atom   13 type  2   force =     0.00000001    0.00000000    0.00002958

     DFT-D3 dispersion contribution to forces:
     atom    1 type  1   force =     0.00000001    0.00000001   -0.00444185
     atom    2 type  1   force =     0.00000000   -0.00000001   -0.00219827
     atom    3 type  1   force =    -0.00000000    0.00000001   -0.00011963
     atom    4 type  1   force =    -0.00000000   -0.00000002    0.00016152
     atom    5 type  1   force =    -0.00000000    0.00000002    0.00328713
     atom    6 type  1   force =     0.00000000   -0.00000001    0.00484223
     atom    7 type  2   force =    -0.00000001    0.00000000   -0.00249254
     atom    8 type  2   force =     0.00000000    0.00000000   -0.00097202
     atom    9 type  2   force =    -0.00000000    0.00000000   -0.00080168
     atom   10 type  2   force =    -0.00000000   -0.00000001    0.00030486
     atom   11 type  2   force =    -0.00000000    0.00000000    0.00186745
     atom   12 type  2   force =     0.00000000   -0.00000000    0.00184947
     atom   13 type  2   force =    -0.00000000    0.00000000   -0.00128668

     Total force =     0.001575     Total SCF correction =     0.000142


     Computing stress (Cartesian axis) and pressure


     negative rho (up, down):  1.439E-05 0.000E+00
          total   stress  (Ry/bohr**3)                   (kbar)     P=      -15.29
  -0.00012630  -0.00000000  -0.00000000          -18.58       -0.00       -0.00
  -0.00000000  -0.00013199   0.00000000           -0.00      -19.42        0.00
  -0.00000000   0.00000000  -0.00005351           -0.00        0.00       -7.87

     Energy error            =      6.0E-06 Ry
     Gradient error          =      8.4E-04 Ry/Bohr

     bfgs converged in  31 scf cycles and  30 bfgs steps
     (criteria: energy <  1.0E-04 Ry, force <  1.0E-03 Ry/Bohr)

     End of BFGS Geometry Optimization

     Final energy             =    -609.9560081408 Ry

     File ./LiAg_mp-2426_110_ontop_1/LiAg_mp-2426_110_ontop_1.bfgs deleted, as requested
Begin final coordinates

ATOMIC_POSITIONS (angstrom)
Ag            0.7806840183        1.1040552152       21.6123695449
Ag            0.7806858703        3.3121675870       18.5879599314
Ag            0.7806848856        1.1040575472       16.6243029082
Ag            0.7806846007        3.3121652946       14.3645934245
Ag            0.7806851303        1.1040570200       12.1808820417
Ag            0.7806861274        3.3121661724       10.1430786514
Li            2.3420571627        3.3121663364       20.6919721278
Li            2.3420561587        1.1040568796       19.0000335753
Li            2.3420546028        3.3121682912       16.4882367040
Li            2.3420547282        1.1040544188       14.4026409799
Li            2.3420543576        3.3121679980       12.2205810083
Li            2.3420575096        1.1040546482        9.8331029904
Li            2.3420438532        3.3121661150       23.1540839751
End final coordinates



     Writing all to output data dir ./LiAg_mp-2426_110_ontop_1/LiAg_mp-2426_110_ontop_1.save/

     init_run     :      6.59s CPU      7.24s WALL (       1 calls)
     electrons    :    177.66s CPU    204.90s WALL (      31 calls)
     update_pot   :      7.35s CPU      7.75s WALL (      30 calls)
     forces       :      7.18s CPU      8.38s WALL (      31 calls)
     force_dftd3  :      0.41s CPU      0.70s WALL (      31 calls)
     stress       :     31.77s CPU     32.84s WALL (      31 calls)
     stres_dftd3  :      0.38s CPU      0.59s WALL (      31 calls)

     Called by init_run:
     wfcinit      :      0.59s CPU      0.97s WALL (       1 calls)
     potinit      :      2.17s CPU      2.21s WALL (       1 calls)
     hinit0       :      3.71s CPU      3.90s WALL (       1 calls)

     Called by electrons:
     c_bands      :    151.55s CPU    171.73s WALL (     282 calls)
     sum_band     :     20.03s CPU     22.30s WALL (     282 calls)
     v_of_rho     :      2.79s CPU      3.80s WALL (     304 calls)
     newd         :      1.80s CPU      1.95s WALL (     304 calls)
     mix_rho      :      0.37s CPU      0.38s WALL (     282 calls)
     energy_dftd3 :      0.09s CPU      0.09s WALL (      31 calls)

     Called by c_bands:
     init_us_2    :      0.85s CPU      0.92s WALL (    5643 calls)
     init_us_2:cp :      0.84s CPU      0.91s WALL (    5643 calls)
     cegterg      :    139.06s CPU    149.08s WALL (    2538 calls)

     Called by *egterg:
     cdiaghg      :     34.55s CPU     34.84s WALL (   10619 calls)
     h_psi        :     82.92s CPU     90.70s WALL (   10979 calls)
     s_psi        :      4.06s CPU      4.12s WALL (   10979 calls)
     g_psi        :      0.25s CPU      0.25s WALL (    8432 calls)

     Called by h_psi:
     h_psi:calbec :      7.60s CPU      9.23s WALL (   10979 calls)
     vloc_psi     :     71.09s CPU     77.11s WALL (   10979 calls)
     add_vuspsi   :      4.02s CPU      4.15s WALL (   10979 calls)

     General routines
     calbec       :     12.38s CPU     14.58s WALL (   14912 calls)
     fft          :      6.99s CPU      8.34s WALL (    4704 calls)
     ffts         :      2.24s CPU      2.64s WALL (     586 calls)
     fftw         :     78.20s CPU     84.73s WALL (  817592 calls)
     interpolate  :      2.29s CPU      2.55s WALL (     304 calls)

     Parallel routines

     PWSCF        :   3m51.68s CPU   4m23.89s WALL


   This run was terminated on:   7:31:40   6Aug2025            

=------------------------------------------------------------------------------=
   JOB DONE.
=------------------------------------------------------------------------------=
