
     Program PWSCF v.7.2 starts on  6Aug2025 at  7:30:57 

     This program is part of the open-source Quantum ESPRESSO suite
     for quantum simulation of materials; please cite
         "P. Giannozzi et al., J. Phys.:Condens. Matter 21 395502 (2009);
         "P. Giannozzi et al., J. Phys.:Condens. Matter 29 465901 (2017);
         "P. Giannozzi et al., J. Chem. Phys. 152 154105 (2020);
          URL http://www.quantum-espresso.org", 
     in publications or presentations arising from this work. More details at
     http://www.quantum-espresso.org/quote

     Parallel version (MPI & OpenMP), running on     256 processor cores
     Number of MPI processes:               256
     Threads/MPI process:                     1

     MPI processes distributed on     4 nodes
     241862 MiB available memory on the printing compute node when the environment starts

     Reading input from LiAg_mp-2426_111_ontop_1.in

     Current dimensions of program PWSCF are:
     Max number of different atomic species (ntypx) = 10
     Max number of k-points (npk) =  40000
     Max angular momentum in pseudopotentials (lmaxx) =  4
     Message from routine iosys:
     restart disabled: needed files not found

     K-points division:     npool     =       4
     R & G space division:  proc/nbgrp/npool/nimage =      64
     Subspace diagonalization in iterative solution of the eigenvalue problem:
     a serial algorithm will be used


     Parallelization info
     --------------------
     sticks:   dense  smooth     PW     G-vecs:    dense   smooth      PW
     Min          37      16      4                 8235     2392     362
     Max          38      17      5                 8258     2433     403
     Sum        2407    1057    313               527639   153843   24959

     Using Slab Decomposition



     bravais-lattice index     =            0
     lattice parameter (alat)  =       8.3454  a.u.
     unit-cell volume          =    2793.3427 (a.u.)^3
     number of atoms/cell      =            7
     number of atomic types    =            2
     number of electrons       =        45.00
     number of Kohn-Sham states=           28
     kinetic-energy cutoff     =      55.0000  Ry
     charge density cutoff     =     500.0000  Ry
     scf convergence threshold =      1.0E-06
     mixing beta               =       0.3000
     number of iterations used =            8  plain     mixing
     energy convergence thresh.=      1.0E-04
     force convergence thresh. =      1.0E-03
     Exchange-correlation= PBE
                           (   1   4   3   4   0   0   0)
     nstep                     =          500


     celldm(1)=   8.345450  celldm(2)=   0.000000  celldm(3)=   0.000000
     celldm(4)=   0.000000  celldm(5)=   0.000000  celldm(6)=   0.000000

     crystal axes: (cart. coord. in units of alat)
               a(1) = (   1.000000   0.000000   0.000000 )  
               a(2) = (   0.500000   0.866025   0.000000 )  
               a(3) = (   0.000000   0.000000   5.549379 )  

     reciprocal axes: (cart. coord. in units 2 pi/alat)
               b(1) = (  1.000000 -0.577350  0.000000 )  
               b(2) = (  0.000000  1.154701  0.000000 )  
               b(3) = ( -0.000000 -0.000000  0.180200 )  


     PseudoPot. # 1 for Ag read from file:
     /home/ecastro/trabajo_final/pseudos/Ag.pbe-n-rrkjus_psl.1.0.0.UPF
     MD5 check sum: 81cdf87bacf708300839c66ee23ce017
     Pseudo is Ultrasoft + core correction, Zval = 11.0
     Generated using &quot;atomic&quot; code by A. Dal Corso  v.6.2.2
     Using radial grid of 1237 points,  6 beta functions with: 
                l(1) =   0
                l(2) =   0
                l(3) =   1
                l(4) =   1
                l(5) =   2
                l(6) =   2
     Q(r) pseudized with 0 coefficients 


     PseudoPot. # 2 for Li read from file:
     /home/ecastro/trabajo_final/pseudos/Li.pbe-s-rrkjus_psl.1.0.0.UPF
     MD5 check sum: 9f98d2529904d60b716d33989e9bc179
     Pseudo is Ultrasoft, Zval =  3.0
     Generated using &quot;atomic&quot; code by A. Dal Corso  v.6.3MaX
     Using radial grid of 1017 points,  4 beta functions with: 
                l(1) =   0
                l(2) =   0
                l(3) =   1
                l(4) =   1
     Q(r) pseudized with 0 coefficients 


     atomic species   valence    mass     pseudopotential
        Ag            11.00   107.86820     Ag( 1.00)
        Li             3.00     6.94100     Li( 1.00)

     No symmetry found



   Cartesian axes

     site n.     atom                  positions (alat units)
         1           Ag  tau(   1) = (   0.2500048   0.1443394   3.2487074  )
         2           Ag  tau(   2) = (   0.7500000   0.4330127   2.8767515  )
         3           Ag  tau(   3) = (   1.2500000   0.7216878   2.4685032  )
         4           Li  tau(   4) = (   1.2500020   0.7216887   3.0939233  )
         5           Li  tau(   5) = (   0.2500000   0.1443376   2.6726274  )
         6           Li  tau(   6) = (   0.7500000   0.4330127   2.2643791  )
         7           Li  tau(   7) = (   1.2500020   0.7216887   3.7015832  )

     --------------------------------------------
     DFT-D3 Dispersion Correction (no 3-body):
     --------------------------------------------
       Reference C6 values for interpolation: 

         atom   Coordination number   C6
         Li         0.000          2326.89
         Li         0.987           170.64
         Ag         0.000           853.49
         Ag         0.968           537.23

       Values used:

         atom   Coordination number  R0_AB[au]  C6      C8
         Ag         6.694            3.147    537.23  47741.54
         Ag         9.484            3.147    537.23  47741.54
         Ag         7.852            3.147    537.23  47741.54
         Li         9.277            3.303    170.64  12899.87
         Li        10.114            3.303    170.64  12899.87
         Li         5.641            3.303    170.64  12899.87
         Li         2.199            3.303    170.64  12899.96

         Molecular C6 ( Ry / a.u.^6 ) =     14508.77


     number of k points=    34  Methfessel-Paxton smearing, width (Ry)=  0.0300
                       cart. coord. in units 2pi/alat
        k(    1) = (   0.0000000   0.0000000   0.0000000), wk =   0.0312500
        k(    2) = (   0.0000000   0.1443376   0.0000000), wk =   0.0625000
        k(    3) = (   0.0000000   0.2886751   0.0000000), wk =   0.0625000
        k(    4) = (   0.0000000   0.4330127   0.0000000), wk =   0.0625000
        k(    5) = (   0.0000000  -0.5773503   0.0000000), wk =   0.0312500
        k(    6) = (   0.1250000  -0.0721688   0.0000000), wk =   0.0625000
        k(    7) = (   0.1250000   0.0721688   0.0000000), wk =   0.0625000
        k(    8) = (   0.1250000   0.2165064   0.0000000), wk =   0.0625000
        k(    9) = (   0.1250000   0.3608439   0.0000000), wk =   0.0625000
        k(   10) = (   0.1250000  -0.6495191   0.0000000), wk =   0.0625000
        k(   11) = (   0.1250000  -0.5051815   0.0000000), wk =   0.0625000
        k(   12) = (   0.1250000  -0.3608439   0.0000000), wk =   0.0625000
        k(   13) = (   0.1250000  -0.2165064   0.0000000), wk =   0.0625000
        k(   14) = (   0.2500000  -0.1443376   0.0000000), wk =   0.0625000
        k(   15) = (   0.2500000   0.0000000   0.0000000), wk =   0.0625000
        k(   16) = (   0.2500000   0.1443376   0.0000000), wk =   0.0625000
        k(   17) = (   0.2500000   0.2886751   0.0000000), wk =   0.0625000
        k(   18) = (   0.2500000  -0.7216878   0.0000000), wk =   0.0625000
        k(   19) = (   0.2500000  -0.5773503   0.0000000), wk =   0.0625000
        k(   20) = (   0.2500000  -0.4330127   0.0000000), wk =   0.0625000
        k(   21) = (   0.2500000  -0.2886751   0.0000000), wk =   0.0625000
        k(   22) = (   0.3750000  -0.2165064   0.0000000), wk =   0.0625000
        k(   23) = (   0.3750000  -0.0721688   0.0000000), wk =   0.0625000
        k(   24) = (   0.3750000   0.0721688   0.0000000), wk =   0.0625000
        k(   25) = (   0.3750000   0.2165064   0.0000000), wk =   0.0625000
        k(   26) = (   0.3750000  -0.7938566   0.0000000), wk =   0.0625000
        k(   27) = (   0.3750000  -0.6495191   0.0000000), wk =   0.0625000
        k(   28) = (   0.3750000  -0.5051815   0.0000000), wk =   0.0625000
        k(   29) = (   0.3750000  -0.3608439   0.0000000), wk =   0.0625000
        k(   30) = (  -0.5000000   0.2886751   0.0000000), wk =   0.0312500
        k(   31) = (  -0.5000000   0.4330127   0.0000000), wk =   0.0625000
        k(   32) = (  -0.5000000   0.5773503   0.0000000), wk =   0.0625000
        k(   33) = (  -0.5000000   0.7216878   0.0000000), wk =   0.0625000
        k(   34) = (  -0.5000000  -0.2886751   0.0000000), wk =   0.0312500

     Dense  grid:   527639 G-vectors     FFT dimensions: (  60,  60, 360)

     Smooth grid:   153843 G-vectors     FFT dimensions: (  40,  40, 225)

     Estimated max dynamical RAM per process >      16.75 MB

     Estimated total dynamical RAM >       3.81 GB
     Cannot read rho : file not found

     Initial potential from superposition of free atoms

     starting charge      44.9804, renormalised to      45.0000

     negative rho (up, down):  4.938E-05 0.000E+00
     Message from routine qexsd_readschema :
     xml data file ./LiAg_mp-2426_111_ontop_1/LiAg_mp-2426_111_ontop_1.save/data-file
     Cannot read wfcs: file not found
     Starting wfcs are   47 randomized atomic wfcs

     total cpu time spent up to now is        6.7 secs

     per-process dynamical memory:   173.9 Mb

     Self-consistent Calculation

     iteration #  1     ecut=    55.00 Ry     beta= 0.30
     Davidson diagonalization with overlap
     ethr =  1.00E-05,  avg # of iterations = 16.2

     negative rho (up, down):  3.984E-05 0.000E+00

     total cpu time spent up to now is        7.8 secs

     total energy              =    -312.08193908 Ry
     estimated scf accuracy    <       0.74800104 Ry

     iteration #  2     ecut=    55.00 Ry     beta= 0.30
     Davidson diagonalization with overlap
     ethr =  1.66E-03,  avg # of iterations =  4.9

     negative rho (up, down):  1.270E-04 0.000E+00

     total cpu time spent up to now is        8.1 secs

     total energy              =    -311.95939557 Ry
     estimated scf accuracy    <       2.98512431 Ry

     iteration #  3     ecut=    55.00 Ry     beta= 0.30
     Davidson diagonalization with overlap
     ethr =  1.66E-03,  avg # of iterations =  3.4

     negative rho (up, down):  1.329E-04 0.000E+00

     total cpu time spent up to now is        8.5 secs

     total energy              =    -312.25075065 Ry
     estimated scf accuracy    <       0.94267913 Ry

     iteration #  4     ecut=    55.00 Ry     beta= 0.30
     Davidson diagonalization with overlap
     ethr =  1.66E-03,  avg # of iterations =  1.0

     negative rho (up, down):  1.096E-04 0.000E+00

     total cpu time spent up to now is        8.8 secs

     total energy              =    -312.29113361 Ry
     estimated scf accuracy    <       0.05419852 Ry

     iteration #  5     ecut=    55.00 Ry     beta= 0.30
     Davidson diagonalization with overlap
     ethr =  1.20E-04,  avg # of iterations =  3.6

     negative rho (up, down):  4.403E-05 0.000E+00

     total cpu time spent up to now is        9.1 secs

     total energy              =    -312.28640307 Ry
     estimated scf accuracy    <       0.02194543 Ry

     iteration #  6     ecut=    55.00 Ry     beta= 0.30
     Davidson diagonalization with overlap
     ethr =  4.88E-05,  avg # of iterations =  5.6

     negative rho (up, down):  3.967E-05 0.000E+00

     total cpu time spent up to now is        9.5 secs

     total energy              =    -312.28929452 Ry
     estimated scf accuracy    <       0.00374729 Ry

     iteration #  7     ecut=    55.00 Ry     beta= 0.30
     Davidson diagonalization with overlap
     c_bands:  1 eigenvalues not converged
     ethr =  8.33E-06,  avg # of iterations =  5.0

     negative rho (up, down):  5.600E-05 0.000E+00

     total cpu time spent up to now is        9.9 secs

     total energy              =    -312.28983604 Ry
     estimated scf accuracy    <       0.00062127 Ry

     iteration #  8     ecut=    55.00 Ry     beta= 0.30
     Davidson diagonalization with overlap
     ethr =  1.38E-06,  avg # of iterations =  6.1

     negative rho (up, down):  5.655E-05 0.000E+00

     total cpu time spent up to now is       10.2 secs

     total energy              =    -312.28993776 Ry
     estimated scf accuracy    <       0.00007048 Ry

     iteration #  9     ecut=    55.00 Ry     beta= 0.30
     Davidson diagonalization with overlap
     ethr =  1.57E-07,  avg # of iterations =  2.6

     negative rho (up, down):  4.724E-05 0.000E+00

     total cpu time spent up to now is       10.5 secs

     total energy              =    -312.28994953 Ry
     estimated scf accuracy    <       0.00004228 Ry

     iteration # 10     ecut=    55.00 Ry     beta= 0.30
     Davidson diagonalization with overlap
     ethr =  9.40E-08,  avg # of iterations =  2.1

     negative rho (up, down):  3.195E-05 0.000E+00

     total cpu time spent up to now is       10.7 secs

     total energy              =    -312.28995614 Ry
     estimated scf accuracy    <       0.00002029 Ry

     iteration # 11     ecut=    55.00 Ry     beta= 0.30
     Davidson diagonalization with overlap
     ethr =  4.51E-08,  avg # of iterations =  1.3

     negative rho (up, down):  1.519E-05 0.000E+00

     total cpu time spent up to now is       10.9 secs

     End of self-consistent calculation

          k = 0.0000 0.0000 0.0000 ( 19117 PWs)   bands (ev):

   -48.2536 -46.9546 -46.1665 -45.9724  -5.6588  -5.2877  -5.2877  -5.1711
    -5.1711  -5.1385  -4.6870  -4.6461  -4.6461  -4.3848  -4.3848  -4.0030
    -4.0013  -4.0013  -3.6715  -3.6715  -3.3572  -1.3071   0.0974   1.5552
     2.5359   2.7193   3.7133   4.1123

          k = 0.0000 0.1443 0.0000 ( 19191 PWs)   bands (ev):

   -48.2537 -46.9547 -46.1666 -45.9725  -5.5545  -5.2736  -5.2470  -5.1716
    -5.1330  -5.0838  -4.6642  -4.6176  -4.6125  -4.3982  -4.3875  -4.0440
    -4.0286  -3.9935  -3.7862  -3.6796  -3.1802  -1.1554   0.2433   1.6871
     2.5846   2.7025   2.8971   3.0999

          k = 0.0000 0.2887 0.0000 ( 19227 PWs)   bands (ev):

   -48.2537 -46.9547 -46.1666 -45.9725  -5.3747  -5.1928  -5.1670  -5.1364
    -5.0008  -4.9394  -4.6485  -4.5353  -4.4989  -4.4241  -4.3357  -4.1402
    -4.1093  -4.0258  -3.9509  -3.6998  -2.7158  -0.7252   0.4450   0.8686
     1.9992   2.0792   2.3726   3.1489

          k = 0.0000 0.4330 0.0000 ( 19265 PWs)   bands (ev):

   -48.2537 -46.9547 -46.1665 -45.9725  -5.3219  -5.1426  -5.1013  -4.9698
    -4.7945  -4.7926  -4.6313  -4.4967  -4.4239  -4.4018  -4.3901  -4.2550
    -4.2288  -3.9781  -3.7169  -3.6894  -2.0390  -1.0784  -0.0102   0.6226
     1.2583   1.4610   2.3853   3.1282

          k = 0.0000-0.5774 0.0000 ( 19296 PWs)   bands (ev):

   -48.2538 -46.9547 -46.1666 -45.9726  -5.3139  -5.1206  -5.0750  -4.8859
    -4.7071  -4.6360  -4.6252  -4.5424  -4.4967  -4.4204  -4.3897  -4.3384
    -4.2987  -3.9655  -3.7203  -2.8090  -2.5765  -0.8708  -0.6073   0.6000
     0.9926   1.5434   2.2476   2.9834

          k = 0.1250-0.0722 0.0000 ( 19191 PWs)   bands (ev):

   -48.2537 -46.9547 -46.1666 -45.9725  -5.5545  -5.2736  -5.2470  -5.1716
    -5.1330  -5.0838  -4.6642  -4.6176  -4.6125  -4.3982  -4.3875  -4.0440
    -4.0286  -3.9935  -3.7862  -3.6795  -3.1802  -1.1554   0.2433   1.6871
     2.5846   2.7025   2.8971   3.0999

          k = 0.1250 0.0722 0.0000 ( 19191 PWs)   bands (ev):

   -48.2537 -46.9547 -46.1666 -45.9725  -5.5545  -5.2736  -5.2470  -5.1716
    -5.1330  -5.0838  -4.6642  -4.6176  -4.6125  -4.3982  -4.3875  -4.0440
    -4.0286  -3.9935  -3.7862  -3.6796  -3.1802  -1.1554   0.2433   1.6871
     2.5846   2.7025   2.8971   3.0999

          k = 0.1250 0.2165 0.0000 ( 19214 PWs)   bands (ev):

   -48.2537 -46.9547 -46.1666 -45.9725  -5.3967  -5.2422  -5.1742  -5.1370
    -5.0980  -4.9582  -4.6183  -4.6054  -4.5252  -4.4272  -4.3501  -4.1383
    -4.0373  -4.0114  -3.9247  -3.7095  -2.8637  -0.8621   0.5089   1.4718
     1.6362   2.0868   2.9783   3.1358

          k = 0.1250 0.3608 0.0000 ( 19244 PWs)   bands (ev):

   -48.2537 -46.9547 -46.1665 -45.9725  -5.2795  -5.1543  -5.0979  -5.0667
    -4.9603  -4.7717  -4.5950  -4.5304  -4.4897  -4.4090  -4.3314  -4.2023
    -4.0930  -4.0373  -3.9476  -3.7197  -2.2675  -0.4577  -0.1018   0.7465
     1.1170   1.7316   2.4581   2.9073

          k = 0.1250-0.6495 0.0000 ( 19267 PWs)   bands (ev):

   -48.2537 -46.9547 -46.1665 -45.9725  -5.2570  -5.0886  -5.0642  -4.9288
    -4.8160  -4.6585  -4.5845  -4.5419  -4.4852  -4.4137  -4.3660  -4.3299
    -4.2204  -3.9969  -3.8505  -3.1172  -2.0233  -1.1594  -0.1237   0.5398
     0.5833   1.7434   2.2114   2.5259

          k = 0.1250-0.5052 0.0000 ( 19267 PWs)   bands (ev):

   -48.2537 -46.9547 -46.1665 -45.9725  -5.2570  -5.0886  -5.0642  -4.9288
    -4.8160  -4.6584  -4.5845  -4.5419  -4.4852  -4.4137  -4.3660  -4.3299
    -4.2204  -3.9969  -3.8505  -3.1172  -2.0233  -1.1594  -0.1237   0.5398
     0.5833   1.7434   2.2114   2.5259

          k = 0.1250-0.3608 0.0000 ( 19244 PWs)   bands (ev):

   -48.2537 -46.9547 -46.1665 -45.9725  -5.2795  -5.1543  -5.0978  -5.0667
    -4.9603  -4.7717  -4.5950  -4.5304  -4.4897  -4.4090  -4.3314  -4.2023
    -4.0930  -4.0373  -3.9476  -3.7197  -2.2675  -0.4577  -0.1018   0.7465
     1.1170   1.7316   2.4581   2.9073

          k = 0.1250-0.2165 0.0000 ( 19214 PWs)   bands (ev):

   -48.2537 -46.9547 -46.1666 -45.9725  -5.3967  -5.2422  -5.1742  -5.1370
    -5.0980  -4.9582  -4.6183  -4.6054  -4.5252  -4.4272  -4.3501  -4.1383
    -4.0373  -4.0114  -3.9247  -3.7095  -2.8637  -0.8621   0.5089   1.4718
     1.6362   2.0868   2.9784   3.1359

          k = 0.2500-0.1443 0.0000 ( 19227 PWs)   bands (ev):

   -48.2537 -46.9547 -46.1666 -45.9725  -5.3747  -5.1928  -5.1670  -5.1364
    -5.0008  -4.9394  -4.6485  -4.5353  -4.4989  -4.4241  -4.3357  -4.1402
    -4.1093  -4.0258  -3.9509  -3.6998  -2.7158  -0.7252   0.4450   0.8686
     1.9992   2.0792   2.3726   3.1489

          k = 0.2500 0.0000 0.0000 ( 19214 PWs)   bands (ev):

   -48.2537 -46.9547 -46.1666 -45.9725  -5.3967  -5.2422  -5.1742  -5.1370
    -5.0980  -4.9582  -4.6183  -4.6054  -4.5252  -4.4272  -4.3501  -4.1383
    -4.0373  -4.0114  -3.9247  -3.7095  -2.8637  -0.8621   0.5089   1.4718
     1.6362   2.0868   2.9783   3.1361

          k = 0.2500 0.1443 0.0000 ( 19227 PWs)   bands (ev):

   -48.2537 -46.9547 -46.1666 -45.9725  -5.3747  -5.1928  -5.1670  -5.1364
    -5.0009  -4.9394  -4.6485  -4.5353  -4.4989  -4.4241  -4.3357  -4.1402
    -4.1093  -4.0258  -3.9509  -3.6998  -2.7158  -0.7252   0.4450   0.8686
     1.9992   2.0793   2.3727   3.1499

          k = 0.2500 0.2887 0.0000 ( 19244 PWs)   bands (ev):

   -48.2537 -46.9547 -46.1665 -45.9725  -5.2795  -5.1543  -5.0978  -5.0667
    -4.9603  -4.7717  -4.5950  -4.5304  -4.4897  -4.4090  -4.3314  -4.2023
    -4.0930  -4.0373  -3.9476  -3.7197  -2.2675  -0.4577  -0.1018   0.7465
     1.1170   1.7316   2.4581   2.9073

          k = 0.2500-0.7217 0.0000 ( 19252 PWs)   bands (ev):

   -48.2537 -46.9546 -46.1665 -45.9725  -5.1421  -5.0912  -5.0477  -4.9790
    -4.9299  -4.6309  -4.5855  -4.5284  -4.4769  -4.4368  -4.3677  -4.2752
    -4.1109  -4.0505  -4.0125  -3.2339  -1.6638  -1.0750  -0.4011   0.4602
     1.1622   1.2887   1.9032   2.6239

          k = 0.2500-0.5774 0.0000 ( 19252 PWs)   bands (ev):

   -48.2537 -46.9546 -46.1664 -45.9724  -5.1065  -5.0402  -4.9785  -4.9572
    -4.8572  -4.7951  -4.5057  -4.4863  -4.4462  -4.4277  -4.3562  -4.3035
    -4.1896  -4.1100  -4.0426  -2.3063  -2.2613  -1.3193  -0.1419   0.1349
     0.9884   1.2669   1.8258   2.4782

          k = 0.2500-0.4330 0.0000 ( 19252 PWs)   bands (ev):

   -48.2537 -46.9546 -46.1665 -45.9725  -5.1421  -5.0912  -5.0477  -4.9790
    -4.9299  -4.6309  -4.5855  -4.5284  -4.4769  -4.4368  -4.3677  -4.2752
    -4.1109  -4.0505  -4.0125  -3.2339  -1.6638  -1.0750  -0.4011   0.4602
     1.1622   1.2887   1.9033   2.6238

          k = 0.2500-0.2887 0.0000 ( 19244 PWs)   bands (ev):

   -48.2537 -46.9547 -46.1665 -45.9725  -5.2795  -5.1543  -5.0978  -5.0667
    -4.9603  -4.7717  -4.5950  -4.5304  -4.4897  -4.4090  -4.3314  -4.2023
    -4.0930  -4.0373  -3.9476  -3.7197  -2.2675  -0.4577  -0.1018   0.7465
     1.1170   1.7316   2.4581   2.9073

          k = 0.3750-0.2165 0.0000 ( 19265 PWs)   bands (ev):

   -48.2537 -46.9547 -46.1665 -45.9725  -5.3220  -5.1426  -5.1013  -4.9698
    -4.7945  -4.7926  -4.6313  -4.4967  -4.4239  -4.4018  -4.3901  -4.2550
    -4.2288  -3.9781  -3.7169  -3.6894  -2.0390  -1.0784  -0.0102   0.6226
     1.2583   1.4610   2.3853   3.5012

          k = 0.3750-0.0722 0.0000 ( 19244 PWs)   bands (ev):

   -48.2537 -46.9547 -46.1665 -45.9725  -5.2795  -5.1543  -5.0979  -5.0666
    -4.9603  -4.7717  -4.5950  -4.5304  -4.4897  -4.4090  -4.3314  -4.2023
    -4.0930  -4.0373  -3.9476  -3.7197  -2.2675  -0.4577  -0.1018   0.7465
     1.1170   1.7316   2.4581   2.9073

          k = 0.3750 0.0722 0.0000 ( 19244 PWs)   bands (ev):

   -48.2537 -46.9547 -46.1665 -45.9725  -5.2795  -5.1543  -5.0978  -5.0667
    -4.9603  -4.7717  -4.5950  -4.5304  -4.4897  -4.4090  -4.3314  -4.2023
    -4.0930  -4.0373  -3.9476  -3.7197  -2.2675  -0.4577  -0.1018   0.7465
     1.1170   1.7316   2.4581   2.9073

          k = 0.3750 0.2165 0.0000 ( 19265 PWs)   bands (ev):

   -48.2537 -46.9547 -46.1665 -45.9725  -5.3219  -5.1426  -5.1013  -4.9698
    -4.7945  -4.7926  -4.6313  -4.4967  -4.4239  -4.4018  -4.3901  -4.2550
    -4.2288  -3.9781  -3.7169  -3.6894  -2.0390  -1.0784  -0.0102   0.6226
     1.2583   1.4610   2.3853   3.1282

          k = 0.3750-0.7939 0.0000 ( 19267 PWs)   bands (ev):

   -48.2537 -46.9547 -46.1665 -45.9725  -5.2570  -5.0886  -5.0642  -4.9288
    -4.8160  -4.6585  -4.5845  -4.5419  -4.4852  -4.4137  -4.3660  -4.3299
    -4.2204  -3.9969  -3.8505  -3.1172  -2.0233  -1.1594  -0.1237   0.5397
     0.5833   1.7434   2.2114   2.5259

          k = 0.3750-0.6495 0.0000 ( 19252 PWs)   bands (ev):

   -48.2537 -46.9546 -46.1664 -45.9724  -5.1065  -5.0402  -4.9785  -4.9572
    -4.8572  -4.7951  -4.5057  -4.4863  -4.4462  -4.4277  -4.3562  -4.3035
    -4.1896  -4.1100  -4.0426  -2.3063  -2.2613  -1.3193  -0.1419   0.1349
     0.9884   1.2669   1.8258   2.4782

          k = 0.3750-0.5052 0.0000 ( 19252 PWs)   bands (ev):

   -48.2537 -46.9546 -46.1664 -45.9724  -5.1065  -5.0402  -4.9785  -4.9572
    -4.8572  -4.7951  -4.5057  -4.4863  -4.4462  -4.4277  -4.3562  -4.3035
    -4.1896  -4.1100  -4.0426  -2.3063  -2.2613  -1.3193  -0.1419   0.1349
     0.9884   1.2669   1.8258   2.4782

          k = 0.3750-0.3608 0.0000 ( 19267 PWs)   bands (ev):

   -48.2537 -46.9547 -46.1665 -45.9725  -5.2570  -5.0886  -5.0642  -4.9288
    -4.8160  -4.6584  -4.5845  -4.5419  -4.4852  -4.4137  -4.3660  -4.3299
    -4.2204  -3.9969  -3.8505  -3.1172  -2.0233  -1.1594  -0.1237   0.5398
     0.5833   1.7434   2.2114   2.5259

          k =-0.5000 0.2887 0.0000 ( 19296 PWs)   bands (ev):

   -48.2538 -46.9547 -46.1666 -45.9726  -5.3139  -5.1206  -5.0750  -4.8859
    -4.7071  -4.6360  -4.6252  -4.5424  -4.4967  -4.4204  -4.3897  -4.3384
    -4.2987  -3.9655  -3.7203  -2.8090  -2.5765  -0.8708  -0.6073   0.6000
     0.9925   1.5434   2.2476   2.9833

          k =-0.5000 0.4330 0.0000 ( 19267 PWs)   bands (ev):

   -48.2537 -46.9547 -46.1665 -45.9725  -5.2570  -5.0886  -5.0642  -4.9288
    -4.8160  -4.6585  -4.5845  -4.5419  -4.4852  -4.4137  -4.3660  -4.3299
    -4.2204  -3.9969  -3.8505  -3.1172  -2.0233  -1.1594  -0.1237   0.5398
     0.5833   1.7434   2.2114   2.5259

          k =-0.5000 0.5774 0.0000 ( 19252 PWs)   bands (ev):

   -48.2537 -46.9546 -46.1665 -45.9725  -5.1421  -5.0912  -5.0477  -4.9790
    -4.9299  -4.6309  -4.5855  -4.5284  -4.4769  -4.4368  -4.3677  -4.2752
    -4.1109  -4.0505  -4.0125  -3.2339  -1.6638  -1.0750  -0.4011   0.4602
     1.1622   1.2887   1.9032   2.6239

          k =-0.5000 0.7217 0.0000 ( 19267 PWs)   bands (ev):

   -48.2537 -46.9547 -46.1665 -45.9725  -5.2570  -5.0886  -5.0642  -4.9288
    -4.8160  -4.6585  -4.5845  -4.5419  -4.4852  -4.4137  -4.3660  -4.3299
    -4.2204  -3.9969  -3.8505  -3.1172  -2.0233  -1.1594  -0.1237   0.5397
     0.5833   1.7434   2.2114   2.5259

          k =-0.5000-0.2887 0.0000 ( 19296 PWs)   bands (ev):

   -48.2538 -46.9547 -46.1666 -45.9726  -5.3139  -5.1206  -5.0750  -4.8860
    -4.7071  -4.6360  -4.6252  -4.5424  -4.4967  -4.4204  -4.3897  -4.3384
    -4.2987  -3.9655  -3.7203  -2.8090  -2.5765  -0.8708  -0.6073   0.6000
     0.9925   1.5434   2.2476   2.9834

     the Fermi energy is    -0.0391 ev

!    total energy              =    -312.28995762 Ry
     estimated scf accuracy    <       0.00000040 Ry
     smearing contrib. (-TS)   =      -0.00047008 Ry
     internal energy E=F+TS    =    -312.28948754 Ry

     The total energy is F=E-TS. E is the sum of the following terms:
     one-electron contribution =   -1951.73344071 Ry
     hartree contribution      =     992.15929188 Ry
     xc contribution           =     -81.30631061 Ry
     ewald contribution        =     728.67615988 Ry
     DFT-D3 Dispersion         =      -0.08518797 Ry

     convergence has been achieved in  11 iterations

     negative rho (up, down):  1.519E-05 0.000E+00

     Forces acting on atoms (cartesian axes, Ry/au):

     atom    1 type  1   force =    -0.00000059   -0.00000222    0.02252637
     atom    2 type  1   force =     0.00000343    0.00000195    0.00818713
     atom    3 type  1   force =     0.00000019    0.00000286    0.01360191
     atom    4 type  2   force =    -0.00000093   -0.00000146   -0.01093978
     atom    5 type  2   force =    -0.00000143   -0.00000120   -0.01592637
     atom    6 type  2   force =     0.00000008    0.00000007   -0.00586860
     atom    7 type  2   force =    -0.00000074    0.00000001   -0.01158066
     The non-local contrib.  to forces
     atom    1 type  1   force =    -0.00000197   -0.00000176    0.02240315
     atom    2 type  1   force =     0.00000102    0.00000533    0.01331954
     atom    3 type  1   force =    -0.00000110    0.00000047    0.01214410
     atom    4 type  2   force =    -0.00000098   -0.00000088    0.00877980
     atom    5 type  2   force =    -0.00000071   -0.00000063   -0.01681454
     atom    6 type  2   force =     0.00000034    0.00000056   -0.06248498
     atom    7 type  2   force =    -0.00000089   -0.00000062    0.04098849
     The ionic contribution  to forces
     atom    1 type  1   force =    -0.00008448   -0.00003115   43.82935827
     atom    2 type  1   force =     0.00007648    0.00002981    1.43430668
     atom    3 type  1   force =     0.00000081    0.00000014  -45.72244706
     atom    4 type  2   force =     0.00001199    0.00000318    7.68800211
     atom    5 type  2   force =    -0.00001092   -0.00000409   -7.30712517
     atom    6 type  2   force =     0.00000038    0.00000015  -17.30427367
     atom    7 type  2   force =     0.00000574    0.00000197   17.38217885
     The local contribution  to forces
     atom    1 type  1   force =     0.00008409    0.00002901  -43.81791676
     atom    2 type  1   force =    -0.00008177   -0.00002953   -1.43811069
     atom    3 type  1   force =    -0.00000255    0.00000071   45.71983932
     atom    4 type  2   force =    -0.00001190   -0.00000321   -7.70689854
     atom    5 type  2   force =     0.00001230    0.00000406    7.30695684
     atom    6 type  2   force =     0.00000006   -0.00000042   17.35922232
     atom    7 type  2   force =    -0.00000574   -0.00000125  -17.43288412
     The core correction contribution to forces
     atom    1 type  1   force =     0.00000001    0.00000005   -0.00662438
     atom    2 type  1   force =    -0.00000046    0.00000015   -0.00271430
     atom    3 type  1   force =     0.00000002   -0.00000008    0.00226079
     atom    4 type  2   force =     0.00000000    0.00000000    0.00000000
     atom    5 type  2   force =     0.00000000    0.00000000    0.00000000
     atom    6 type  2   force =     0.00000000    0.00000000    0.00000000
     atom    7 type  2   force =     0.00000000    0.00000000    0.00000000
     The Hubbard contrib.    to forces
     atom    1 type  1   force =     0.00000000    0.00000000    0.00000000
     atom    2 type  1   force =     0.00000000    0.00000000    0.00000000
     atom    3 type  1   force =     0.00000000    0.00000000    0.00000000
     atom    4 type  2   force =     0.00000000    0.00000000    0.00000000
     atom    5 type  2   force =     0.00000000    0.00000000    0.00000000
     atom    6 type  2   force =     0.00000000    0.00000000    0.00000000
     atom    7 type  2   force =     0.00000000    0.00000000    0.00000000
     The SCF correction term to forces
     atom    1 type  1   force =     0.00000196    0.00000193   -0.00126397
     atom    2 type  1   force =     0.00000859   -0.00000343    0.00040602
     atom    3 type  1   force =     0.00000334    0.00000197    0.00030390
     atom    4 type  2   force =     0.00000029   -0.00000020   -0.00032759
     atom    5 type  2   force =    -0.00000176   -0.00000019    0.00016213
     atom    6 type  2   force =    -0.00000038    0.00000012    0.00006033
     atom    7 type  2   force =     0.00000049    0.00000027   -0.00036406

     DFT-D3 dispersion contribution to forces:
     atom    1 type  1   force =     0.00000013    0.00000005   -0.00336668
     atom    2 type  1   force =    -0.00000010   -0.00000004    0.00104315
     atom    3 type  1   force =    -0.00000000   -0.00000000    0.00156412
     atom    4 type  2   force =     0.00000001    0.00000000   -0.00043231
     atom    5 type  2   force =    -0.00000001   -0.00000000    0.00095763
     atom    6 type  2   force =     0.00000000    0.00000000    0.00167065
     atom    7 type  2   force =    -0.00000002   -0.00000001   -0.00143656

     Total force =     0.036074     Total SCF correction =     0.001458


     Computing stress (Cartesian axis) and pressure


     negative rho (up, down):  1.519E-05 0.000E+00
          total   stress  (Ry/bohr**3)                   (kbar)     P=      -10.06
  -0.00008262   0.00000000  -0.00000000          -12.15        0.00       -0.00
   0.00000000  -0.00008263  -0.00000000            0.00      -12.15       -0.00
  -0.00000000  -0.00000000  -0.00003984           -0.00       -0.00       -5.86


     BFGS Geometry Optimization
     Energy error            =      0.0E+00 Ry
     Gradient error          =      2.3E-02 Ry/Bohr

     number of scf cycles    =   1
     number of bfgs steps    =   0

     energy             new  =    -312.2899576188 Ry

     new trust radius        =       0.0225263737 bohr
     new conv_thr            =       0.0000010000 Ry


ATOMIC_POSITIONS (angstrom)
Ag            1.1040765094        0.6374336696       14.3589327311
Ag            3.3121681124        1.9122811340       12.7087049001
Ag            5.5202772565        3.1871350155       10.9086553058
Li            5.5202856860        3.1871365749       13.6576620356
Li            1.1040546726        0.6374260658       11.7944870975
Li            3.3121663362        1.9122801376        9.9968944709
Li            5.5202857835        3.1871373538       16.3408840643



     Writing config-only to output data dir ./LiAg_mp-2426_111_ontop_1/LiAg_mp-2426_111_ontop_1.save/
     NEW-OLD atomic charge density approx. for the potential

     negative rho (up, down):  1.551E-05 0.000E+00

     total cpu time spent up to now is       12.1 secs

     per-process dynamical memory:   180.9 Mb

     Self-consistent Calculation

     iteration #  1     ecut=    55.00 Ry     beta= 0.30
     Davidson diagonalization with overlap
     ethr =  1.00E-06,  avg # of iterations =  6.0

     Threshold (ethr) on eigenvalues was too large:
     Diagonalizing with lowered threshold

     Davidson diagonalization with overlap
     ethr =  3.56E-08,  avg # of iterations =  3.1

     negative rho (up, down):  1.538E-05 0.000E+00

     total cpu time spent up to now is       12.9 secs

     total energy              =    -312.29120950 Ry
     estimated scf accuracy    <       0.00001761 Ry

     iteration #  2     ecut=    55.00 Ry     beta= 0.30
     Davidson diagonalization with overlap
     ethr =  3.91E-08,  avg # of iterations =  1.5

     negative rho (up, down):  1.531E-05 0.000E+00

     total cpu time spent up to now is       13.2 secs

     total energy              =    -312.29120975 Ry
     estimated scf accuracy    <       0.00000607 Ry

     iteration #  3     ecut=    55.00 Ry     beta= 0.30
     Davidson diagonalization with overlap
     ethr =  1.35E-08,  avg # of iterations =  2.0

     negative rho (up, down):  1.541E-05 0.000E+00

     total cpu time spent up to now is       13.4 secs

     total energy              =    -312.29120900 Ry
     estimated scf accuracy    <       0.00002587 Ry

     iteration #  4     ecut=    55.00 Ry     beta= 0.30
     Davidson diagonalization with overlap
     ethr =  1.35E-08,  avg # of iterations =  1.2

     negative rho (up, down):  1.532E-05 0.000E+00

     total cpu time spent up to now is       13.7 secs

     total energy              =    -312.29121085 Ry
     estimated scf accuracy    <       0.00000461 Ry

     iteration #  5     ecut=    55.00 Ry     beta= 0.30
     Davidson diagonalization with overlap
     ethr =  1.03E-08,  avg # of iterations =  1.0

     negative rho (up, down):  1.521E-05 0.000E+00

     total cpu time spent up to now is       13.9 secs

     End of self-consistent calculation

          k = 0.0000 0.0000 0.0000 ( 19117 PWs)   bands (ev):

   -48.2365 -46.9571 -46.1589 -45.9701  -5.6529  -5.2790  -5.2790  -5.1637
    -5.1637  -5.1336  -4.6791  -4.6392  -4.6392  -4.3809  -4.3809  -3.9967
    -3.9956  -3.9956  -3.6666  -3.6666  -3.3554  -1.3020   0.1071   1.5644
     2.5480   2.7309   3.7303   4.1193

          k = 0.0000 0.1443 0.0000 ( 19191 PWs)   bands (ev):

   -48.2366 -46.9572 -46.1590 -45.9703  -5.5482  -5.2652  -5.2383  -5.1645
    -5.1259  -5.0787  -4.6568  -4.6098  -4.6058  -4.3942  -4.3837  -4.0375
    -4.0227  -3.9880  -3.7814  -3.6747  -3.1786  -1.1504   0.2529   1.6962
     2.5895   2.7142   2.9081   3.1041

          k = 0.0000 0.2887 0.0000 ( 19227 PWs)   bands (ev):

   -48.2366 -46.9572 -46.1590 -45.9703  -5.3667  -5.1859  -5.1583  -5.1295
    -4.9941  -4.9341  -4.6409  -4.5291  -4.4911  -4.4202  -4.3317  -4.1332
    -4.1025  -4.0222  -3.9448  -3.6950  -2.7149  -0.7206   0.4517   0.8761
     2.0037   2.0877   2.3735   3.1589

          k = 0.0000 0.4330 0.0000 ( 19265 PWs)   bands (ev):

   -48.2366 -46.9572 -46.1590 -45.9703  -5.3139  -5.1363  -5.0929  -4.9625
    -4.7890  -4.7864  -4.6230  -4.4909  -4.4206  -4.3985  -4.3796  -4.2510
    -4.2198  -3.9720  -3.7122  -3.6853  -2.0381  -1.0743  -0.0062   0.6240
     1.2631   1.4707   2.3939   3.1333

          k = 0.0000-0.5774 0.0000 ( 19296 PWs)   bands (ev):

   -48.2367 -46.9572 -46.1590 -45.9703  -5.3061  -5.1147  -5.0668  -4.8785
    -4.7001  -4.6279  -4.6196  -4.5372  -4.4920  -4.4179  -4.3812  -4.3348
    -4.2876  -3.9593  -3.7157  -2.8044  -2.5731  -0.8682  -0.6082   0.6021
     0.9974   1.5544   2.2586   2.9880

          k = 0.1250-0.0722 0.0000 ( 19191 PWs)   bands (ev):

   -48.2366 -46.9572 -46.1590 -45.9703  -5.5482  -5.2652  -5.2383  -5.1645
    -5.1259  -5.0787  -4.6568  -4.6098  -4.6058  -4.3942  -4.3837  -4.0375
    -4.0227  -3.9880  -3.7814  -3.6747  -3.1786  -1.1504   0.2529   1.6962
     2.5895   2.7142   2.9081   3.1041

          k = 0.1250 0.0722 0.0000 ( 19191 PWs)   bands (ev):

   -48.2366 -46.9572 -46.1590 -45.9703  -5.5482  -5.2652  -5.2383  -5.1645
    -5.1259  -5.0787  -4.6568  -4.6098  -4.6058  -4.3942  -4.3837  -4.0375
    -4.0227  -3.9880  -3.7814  -3.6747  -3.1786  -1.1504   0.2529   1.6962
     2.5895   2.7142   2.9081   3.1041

          k = 0.1250 0.2165 0.0000 ( 19214 PWs)   bands (ev):

   -48.2366 -46.9572 -46.1590 -45.9703  -5.3891  -5.2345  -5.1652  -5.1303
    -5.0921  -4.9526  -4.6104  -4.5989  -4.5177  -4.4233  -4.3464  -4.1311
    -4.0314  -4.0062  -3.9195  -3.7047  -2.8626  -0.8573   0.5182   1.4751
     1.6443   2.0930   2.9880   3.1441

          k = 0.1250 0.3608 0.0000 ( 19244 PWs)   bands (ev):

   -48.2366 -46.9572 -46.1589 -45.9702  -5.2709  -5.1470  -5.0891  -5.0609
    -4.9545  -4.7656  -4.5874  -4.5246  -4.4831  -4.4051  -4.3235  -4.1971
    -4.0872  -4.0312  -3.9426  -3.7153  -2.2668  -0.4542  -0.0959   0.7512
     1.1231   1.7371   2.4646   2.9089

          k = 0.1250-0.6495 0.0000 ( 19267 PWs)   bands (ev):

   -48.2366 -46.9572 -46.1589 -45.9703  -5.2491  -5.0813  -5.0569  -4.9213
    -4.8104  -4.6517  -4.5774  -4.5338  -4.4829  -4.4092  -4.3587  -4.3238
    -4.2129  -3.9901  -3.8461  -3.1130  -2.0200  -1.1575  -0.1224   0.5435
     0.5872   1.7525   2.2213   2.5284

          k = 0.1250-0.5052 0.0000 ( 19267 PWs)   bands (ev):

   -48.2366 -46.9572 -46.1589 -45.9703  -5.2491  -5.0813  -5.0569  -4.9213
    -4.8104  -4.6517  -4.5774  -4.5338  -4.4829  -4.4092  -4.3587  -4.3238
    -4.2129  -3.9901  -3.8461  -3.1130  -2.0200  -1.1575  -0.1224   0.5435
     0.5872   1.7525   2.2213   2.5284

          k = 0.1250-0.3608 0.0000 ( 19244 PWs)   bands (ev):

   -48.2366 -46.9572 -46.1589 -45.9702  -5.2709  -5.1470  -5.0891  -5.0609
    -4.9545  -4.7656  -4.5874  -4.5246  -4.4831  -4.4051  -4.3235  -4.1971
    -4.0872  -4.0312  -3.9426  -3.7153  -2.2668  -0.4542  -0.0958   0.7512
     1.1231   1.7371   2.4646   2.9089

          k = 0.1250-0.2165 0.0000 ( 19214 PWs)   bands (ev):

   -48.2366 -46.9572 -46.1590 -45.9703  -5.3891  -5.2345  -5.1652  -5.1303
    -5.0921  -4.9525  -4.6104  -4.5989  -4.5177  -4.4233  -4.3464  -4.1311
    -4.0314  -4.0062  -3.9195  -3.7046  -2.8626  -0.8573   0.5182   1.4751
     1.6443   2.0930   2.9880   3.1441

          k = 0.2500-0.1443 0.0000 ( 19227 PWs)   bands (ev):

   -48.2366 -46.9572 -46.1590 -45.9703  -5.3667  -5.1859  -5.1583  -5.1295
    -4.9941  -4.9341  -4.6409  -4.5291  -4.4911  -4.4202  -4.3317  -4.1332
    -4.1025  -4.0222  -3.9448  -3.6950  -2.7149  -0.7206   0.4517   0.8761
     2.0037   2.0877   2.3735   3.1589

          k = 0.2500 0.0000 0.0000 ( 19214 PWs)   bands (ev):

   -48.2366 -46.9572 -46.1590 -45.9703  -5.3891  -5.2345  -5.1652  -5.1303
    -5.0921  -4.9526  -4.6104  -4.5989  -4.5177  -4.4233  -4.3464  -4.1311
    -4.0314  -4.0062  -3.9195  -3.7047  -2.8626  -0.8573   0.5182   1.4751
     1.6443   2.0930   2.9880   3.1441

          k = 0.2500 0.1443 0.0000 ( 19227 PWs)   bands (ev):

   -48.2366 -46.9572 -46.1590 -45.9703  -5.3666  -5.1859  -5.1583  -5.1295
    -4.9941  -4.9341  -4.6409  -4.5291  -4.4911  -4.4201  -4.3317  -4.1332
    -4.1024  -4.0222  -3.9448  -3.6950  -2.7149  -0.7206   0.4517   0.8761
     2.0037   2.0877   2.3736   3.1585

          k = 0.2500 0.2887 0.0000 ( 19244 PWs)   bands (ev):

   -48.2366 -46.9572 -46.1589 -45.9702  -5.2709  -5.1470  -5.0891  -5.0609
    -4.9545  -4.7656  -4.5874  -4.5246  -4.4831  -4.4051  -4.3235  -4.1971
    -4.0872  -4.0312  -3.9426  -3.7153  -2.2668  -0.4542  -0.0959   0.7512
     1.1231   1.7371   2.4646   2.9089

          k = 0.2500-0.7217 0.0000 ( 19252 PWs)   bands (ev):

   -48.2366 -46.9571 -46.1589 -45.9702  -5.1319  -5.0859  -5.0393  -4.9724
    -4.9246  -4.6248  -4.5775  -4.5238  -4.4707  -4.4324  -4.3588  -4.2714
    -4.1024  -4.0444  -4.0085  -3.2298  -1.6626  -1.0712  -0.3967   0.4641
     1.1603   1.2951   1.9115   2.6324

          k = 0.2500-0.5774 0.0000 ( 19252 PWs)   bands (ev):

   -48.2366 -46.9571 -46.1588 -45.9702  -5.0979  -5.0325  -4.9716  -4.9498
    -4.8513  -4.7899  -4.4982  -4.4771  -4.4425  -4.4219  -4.3545  -4.2958
    -4.1820  -4.1024  -4.0385  -2.3035  -2.2563  -1.3158  -0.1410   0.1374
     0.9889   1.2717   1.8320   2.4893

          k = 0.2500-0.4330 0.0000 ( 19252 PWs)   bands (ev):

   -48.2366 -46.9571 -46.1589 -45.9702  -5.1319  -5.0859  -5.0393  -4.9724
    -4.9246  -4.6248  -4.5775  -4.5238  -4.4707  -4.4324  -4.3588  -4.2714
    -4.1024  -4.0444  -4.0085  -3.2298  -1.6626  -1.0712  -0.3967   0.4641
     1.1603   1.2951   1.9115   2.6324

          k = 0.2500-0.2887 0.0000 ( 19244 PWs)   bands (ev):

   -48.2366 -46.9572 -46.1589 -45.9702  -5.2709  -5.1470  -5.0891  -5.0609
    -4.9545  -4.7656  -4.5874  -4.5246  -4.4831  -4.4051  -4.3235  -4.1971
    -4.0872  -4.0312  -3.9426  -3.7153  -2.2668  -0.4542  -0.0958   0.7512
     1.1231   1.7371   2.4646   2.9089

          k = 0.3750-0.2165 0.0000 ( 19265 PWs)   bands (ev):

   -48.2366 -46.9572 -46.1590 -45.9703  -5.3139  -5.1363  -5.0929  -4.9625
    -4.7890  -4.7864  -4.6230  -4.4909  -4.4206  -4.3985  -4.3796  -4.2510
    -4.2199  -3.9720  -3.7122  -3.6853  -2.0381  -1.0743  -0.0062   0.6240
     1.2631   1.4707   2.3939   3.5017

          k = 0.3750-0.0722 0.0000 ( 19244 PWs)   bands (ev):

   -48.2366 -46.9572 -46.1589 -45.9702  -5.2709  -5.1470  -5.0891  -5.0609
    -4.9545  -4.7656  -4.5874  -4.5246  -4.4831  -4.4051  -4.3235  -4.1971
    -4.0872  -4.0312  -3.9426  -3.7153  -2.2668  -0.4542  -0.0959   0.7512
     1.1231   1.7371   2.4646   2.9089

          k = 0.3750 0.0722 0.0000 ( 19244 PWs)   bands (ev):

   -48.2366 -46.9572 -46.1589 -45.9702  -5.2709  -5.1470  -5.0891  -5.0609
    -4.9545  -4.7656  -4.5874  -4.5246  -4.4831  -4.4051  -4.3235  -4.1971
    -4.0872  -4.0312  -3.9426  -3.7153  -2.2668  -0.4542  -0.0959   0.7512
     1.1231   1.7371   2.4646   2.9089

          k = 0.3750 0.2165 0.0000 ( 19265 PWs)   bands (ev):

   -48.2366 -46.9572 -46.1590 -45.9703  -5.3139  -5.1363  -5.0929  -4.9625
    -4.7890  -4.7864  -4.6230  -4.4909  -4.4206  -4.3985  -4.3796  -4.2510
    -4.2198  -3.9720  -3.7122  -3.6853  -2.0381  -1.0743  -0.0062   0.6240
     1.2631   1.4707   2.3939   3.1333

          k = 0.3750-0.7939 0.0000 ( 19267 PWs)   bands (ev):

   -48.2366 -46.9572 -46.1589 -45.9703  -5.2491  -5.0813  -5.0569  -4.9213
    -4.8104  -4.6517  -4.5774  -4.5338  -4.4829  -4.4092  -4.3587  -4.3238
    -4.2129  -3.9901  -3.8461  -3.1130  -2.0200  -1.1575  -0.1224   0.5435
     0.5872   1.7525   2.2213   2.5284

          k = 0.3750-0.6495 0.0000 ( 19252 PWs)   bands (ev):

   -48.2366 -46.9571 -46.1588 -45.9702  -5.0979  -5.0325  -4.9716  -4.9498
    -4.8513  -4.7899  -4.4982  -4.4771  -4.4425  -4.4219  -4.3545  -4.2958
    -4.1820  -4.1024  -4.0385  -2.3035  -2.2563  -1.3159  -0.1410   0.1374
     0.9889   1.2717   1.8320   2.4893

          k = 0.3750-0.5052 0.0000 ( 19252 PWs)   bands (ev):

   -48.2366 -46.9571 -46.1588 -45.9702  -5.0979  -5.0325  -4.9716  -4.9498
    -4.8513  -4.7899  -4.4982  -4.4771  -4.4425  -4.4219  -4.3545  -4.2958
    -4.1820  -4.1024  -4.0385  -2.3035  -2.2563  -1.3158  -0.1410   0.1374
     0.9889   1.2717   1.8320   2.4893

          k = 0.3750-0.3608 0.0000 ( 19267 PWs)   bands (ev):

   -48.2366 -46.9572 -46.1589 -45.9703  -5.2491  -5.0813  -5.0569  -4.9213
    -4.8104  -4.6517  -4.5774  -4.5338  -4.4829  -4.4092  -4.3587  -4.3238
    -4.2129  -3.9901  -3.8461  -3.1130  -2.0200  -1.1575  -0.1224   0.5435
     0.5872   1.7525   2.2213   2.5284

          k =-0.5000 0.2887 0.0000 ( 19296 PWs)   bands (ev):

   -48.2367 -46.9572 -46.1590 -45.9703  -5.3061  -5.1147  -5.0668  -4.8785
    -4.7001  -4.6279  -4.6196  -4.5372  -4.4920  -4.4179  -4.3812  -4.3348
    -4.2876  -3.9593  -3.7157  -2.8044  -2.5731  -0.8682  -0.6082   0.6021
     0.9974   1.5544   2.2586   2.9880

          k =-0.5000 0.4330 0.0000 ( 19267 PWs)   bands (ev):

   -48.2366 -46.9572 -46.1589 -45.9703  -5.2491  -5.0813  -5.0569  -4.9213
    -4.8104  -4.6517  -4.5774  -4.5338  -4.4829  -4.4092  -4.3587  -4.3238
    -4.2129  -3.9901  -3.8461  -3.1130  -2.0200  -1.1575  -0.1224   0.5435
     0.5872   1.7525   2.2213   2.5284

          k =-0.5000 0.5774 0.0000 ( 19252 PWs)   bands (ev):

   -48.2366 -46.9571 -46.1589 -45.9702  -5.1319  -5.0859  -5.0393  -4.9724
    -4.9246  -4.6248  -4.5775  -4.5238  -4.4707  -4.4324  -4.3588  -4.2714
    -4.1024  -4.0444  -4.0085  -3.2298  -1.6626  -1.0712  -0.3967   0.4641
     1.1603   1.2951   1.9115   2.6324

          k =-0.5000 0.7217 0.0000 ( 19267 PWs)   bands (ev):

   -48.2366 -46.9572 -46.1589 -45.9703  -5.2491  -5.0813  -5.0569  -4.9213
    -4.8104  -4.6517  -4.5774  -4.5338  -4.4829  -4.4092  -4.3587  -4.3238
    -4.2129  -3.9901  -3.8461  -3.1130  -2.0200  -1.1575  -0.1224   0.5435
     0.5872   1.7525   2.2213   2.5284

          k =-0.5000-0.2887 0.0000 ( 19296 PWs)   bands (ev):

   -48.2367 -46.9572 -46.1590 -45.9703  -5.3061  -5.1147  -5.0668  -4.8785
    -4.7001  -4.6279  -4.6196  -4.5372  -4.4920  -4.4179  -4.3812  -4.3348
    -4.2876  -3.9593  -3.7157  -2.8044  -2.5731  -0.8682  -0.6082   0.6021
     0.9974   1.5544   2.2586   2.9880

     the Fermi energy is    -0.0354 ev

!    total energy              =    -312.29121129 Ry
     estimated scf accuracy    <       0.00000018 Ry
     smearing contrib. (-TS)   =      -0.00044402 Ry
     internal energy E=F+TS    =    -312.29076727 Ry

     The total energy is F=E-TS. E is the sum of the following terms:
     one-electron contribution =   -1951.15075183 Ry
     hartree contribution      =     991.88582639 Ry
     xc contribution           =     -81.30544523 Ry
     ewald contribution        =     728.36474281 Ry
     DFT-D3 Dispersion         =      -0.08513943 Ry

     convergence has been achieved in   5 iterations

     negative rho (up, down):  1.521E-05 0.000E+00

     Forces acting on atoms (cartesian axes, Ry/au):

     atom    1 type  1   force =    -0.00000280    0.00000021    0.02136275
     atom    2 type  1   force =     0.00000138    0.00000146    0.00761985
     atom    3 type  1   force =     0.00000092   -0.00000043    0.01242712
     atom    4 type  2   force =     0.00000066    0.00000047   -0.01011670
     atom    5 type  2   force =    -0.00000001   -0.00000030   -0.01425197
     atom    6 type  2   force =     0.00000012   -0.00000057   -0.00535687
     atom    7 type  2   force =    -0.00000027   -0.00000084   -0.01168418
     The non-local contrib.  to forces
     atom    1 type  1   force =    -0.00000194    0.00000122    0.02250743
     atom    2 type  1   force =     0.00000051    0.00000338    0.01468658
     atom    3 type  1   force =     0.00000192    0.00000110    0.01339719
     atom    4 type  2   force =     0.00000071    0.00000050    0.00891860
     atom    5 type  2   force =    -0.00000022    0.00000011   -0.01611577
     atom    6 type  2   force =     0.00000018   -0.00000014   -0.06245681
     atom    7 type  2   force =    -0.00000016   -0.00000014    0.04142861
     The ionic contribution  to forces
     atom    1 type  1   force =    -0.00007816   -0.00002310   43.87467847
     atom    2 type  1   force =     0.00005850    0.00001912    1.44639444
     atom    3 type  1   force =     0.00000333   -0.00000683  -45.65869358
     atom    4 type  2   force =     0.00001550    0.00000423    7.61907772
     atom    5 type  2   force =    -0.00000475    0.00000296   -7.35420439
     atom    6 type  2   force =    -0.00000045    0.00000206  -17.31441514
     atom    7 type  2   force =     0.00000603    0.00000155   17.38716248
     The local contribution  to forces
     atom    1 type  1   force =     0.00007804    0.00002099  -43.86643902
     atom    2 type  1   force =    -0.00005657   -0.00002101   -1.45154847
     atom    3 type  1   force =    -0.00000410    0.00000664   45.65358414
     atom    4 type  2   force =    -0.00001582   -0.00000393   -7.63764186
     atom    5 type  2   force =     0.00000475   -0.00000290    7.35525060
     atom    6 type  2   force =     0.00000051   -0.00000197   17.36986326
     atom    7 type  2   force =    -0.00000628   -0.00000180  -17.43851070
     The core correction contribution to forces
     atom    1 type  1   force =     0.00000020   -0.00000002   -0.00640145
     atom    2 type  1   force =    -0.00000010   -0.00000009   -0.00265806
     atom    3 type  1   force =    -0.00000004    0.00000005    0.00234186
     atom    4 type  2   force =     0.00000000    0.00000000    0.00000000
     atom    5 type  2   force =     0.00000000    0.00000000    0.00000000
     atom    6 type  2   force =     0.00000000    0.00000000    0.00000000
     atom    7 type  2   force =     0.00000000    0.00000000    0.00000000
     The Hubbard contrib.    to forces
     atom    1 type  1   force =     0.00000000    0.00000000    0.00000000
     atom    2 type  1   force =     0.00000000    0.00000000    0.00000000
     atom    3 type  1   force =     0.00000000    0.00000000    0.00000000
     atom    4 type  2   force =     0.00000000    0.00000000    0.00000000
     atom    5 type  2   force =     0.00000000    0.00000000    0.00000000
     atom    6 type  2   force =     0.00000000    0.00000000    0.00000000
     atom    7 type  2   force =     0.00000000    0.00000000    0.00000000
     The SCF correction term to forces
     atom    1 type  1   force =    -0.00000105    0.00000157    0.00043758
     atom    2 type  1   force =    -0.00000088    0.00000058   -0.00016028
     atom    3 type  1   force =    -0.00000017   -0.00000092    0.00033474
     atom    4 type  2   force =     0.00000026    0.00000015    0.00009048
     atom    5 type  2   force =     0.00000022    0.00000001   -0.00000447
     atom    6 type  2   force =    -0.00000012   -0.00000004    0.00010660
     atom    7 type  2   force =     0.00000015    0.00000004   -0.00017811

     DFT-D3 dispersion contribution to forces:
     atom    1 type  1   force =     0.00000012    0.00000004   -0.00330130
     atom    2 type  1   force =    -0.00000008   -0.00000003    0.00102459
     atom    3 type  1   force =    -0.00000001    0.00000000    0.00158172
     atom    4 type  2   force =     0.00000000    0.00000000   -0.00044269
     atom    5 type  2   force =    -0.00000001   -0.00000001    0.00094102
     atom    6 type  2   force =     0.00000000   -0.00000000    0.00166418
     atom    7 type  2   force =    -0.00000002   -0.00000000   -0.00146752

     Total force =     0.033757     Total SCF correction =     0.000617


     Computing stress (Cartesian axis) and pressure


     negative rho (up, down):  1.521E-05 0.000E+00
          total   stress  (Ry/bohr**3)                   (kbar)     P=      -10.02
  -0.00008202  -0.00000000  -0.00000000          -12.07       -0.00       -0.00
  -0.00000000  -0.00008203  -0.00000000           -0.00      -12.07       -0.00
  -0.00000000  -0.00000000  -0.00004035           -0.00       -0.00       -5.94

     Energy error            =      1.3E-03 Ry
     Gradient error          =      2.1E-02 Ry/Bohr

     number of scf cycles    =   2
     number of bfgs steps    =   1

     energy             old  =    -312.2899576188 Ry
     energy             new  =    -312.2912112904 Ry

     CASE: energy            _new < energy            _old


     WARNING: bfgs curvature condition failed, Theta= 0.855
     new trust radius        =       0.0247790111 bohr
     new conv_thr            =       0.0000001254 Ry


ATOMIC_POSITIONS (angstrom)
Ag            1.1040752435        0.6374333305       14.3720452190
Ag            3.3121693388        1.9122821095       12.7134111335
Ag            5.5202776718        3.1871353849       10.9163784499
Li            5.5202857784        3.1871364872       13.6514002880
Li            1.1040543942        0.6374257129       11.7855672031
Li            3.3121664019        1.9122799154        9.9935642925
Li            5.5202855281        3.1871370107       16.3338540193



     Writing config-only to output data dir ./LiAg_mp-2426_111_ontop_1/LiAg_mp-2426_111_ontop_1.save/
     NEW-OLD atomic charge density approx. for the potential

     negative rho (up, down):  1.564E-05 0.000E+00

     total cpu time spent up to now is       15.0 secs

     per-process dynamical memory:   211.8 Mb

     Self-consistent Calculation

     iteration #  1     ecut=    55.00 Ry     beta= 0.30
     Davidson diagonalization with overlap
     ethr =  1.00E-06,  avg # of iterations =  6.0

     Threshold (ethr) on eigenvalues was too large:
     Diagonalizing with lowered threshold

     Davidson diagonalization with overlap
     ethr =  6.97E-08,  avg # of iterations =  1.8

     negative rho (up, down):  1.544E-05 0.000E+00

     total cpu time spent up to now is       15.8 secs

     total energy              =    -312.29246726 Ry
     estimated scf accuracy    <       0.00003335 Ry

     iteration #  2     ecut=    55.00 Ry     beta= 0.30
     Davidson diagonalization with overlap
     ethr =  7.41E-08,  avg # of iterations =  2.0

     negative rho (up, down):  1.655E-05 0.000E+00

     total cpu time spent up to now is       16.0 secs

     total energy              =    -312.29245775 Ry
     estimated scf accuracy    <       0.00028244 Ry

     iteration #  3     ecut=    55.00 Ry     beta= 0.30
     Davidson diagonalization with overlap
     ethr =  7.41E-08,  avg # of iterations =  1.6

     negative rho (up, down):  1.540E-05 0.000E+00

     total cpu time spent up to now is       16.3 secs

     total energy              =    -312.29247488 Ry
     estimated scf accuracy    <       0.00000587 Ry

     iteration #  4     ecut=    55.00 Ry     beta= 0.30
     Davidson diagonalization with overlap
     ethr =  1.31E-08,  avg # of iterations =  1.9

     negative rho (up, down):  1.531E-05 0.000E+00

     total cpu time spent up to now is       16.5 secs

     total energy              =    -312.29247540 Ry
     estimated scf accuracy    <       0.00000133 Ry

     iteration #  5     ecut=    55.00 Ry     beta= 0.30
     Davidson diagonalization with overlap
     ethr =  2.95E-09,  avg # of iterations =  2.6

     negative rho (up, down):  1.526E-05 0.000E+00

     total cpu time spent up to now is       16.7 secs

     total energy              =    -312.29247567 Ry
     estimated scf accuracy    <       0.00000022 Ry

     iteration #  6     ecut=    55.00 Ry     beta= 0.30
     Davidson diagonalization with overlap
     ethr =  4.84E-10,  avg # of iterations =  3.8

     negative rho (up, down):  1.519E-05 0.000E+00

     total cpu time spent up to now is       17.0 secs

     End of self-consistent calculation

          k = 0.0000 0.0000 0.0000 ( 19117 PWs)   bands (ev):

   -48.2167 -46.9614 -46.1513 -45.9693  -5.6458  -5.2695  -5.2695  -5.1557
    -5.1557  -5.1283  -4.6700  -4.6311  -4.6311  -4.3760  -4.3760  -3.9897
    -3.9893  -3.9893  -3.6612  -3.6612  -3.3530  -1.2961   0.1174   1.5735
     2.5496   2.7283   3.7345   4.1142

          k = 0.0000 0.1443 0.0000 ( 19191 PWs)   bands (ev):

   -48.2168 -46.9615 -46.1514 -45.9694  -5.5407  -5.2560  -5.2287  -5.1569
    -5.1181  -5.0733  -4.6483  -4.6008  -4.5979  -4.3893  -4.3789  -4.0303
    -4.0160  -3.9818  -3.7760  -3.6692  -3.1765  -1.1447   0.2631   1.7054
     2.5935   2.7162   2.9058   3.1090

          k = 0.0000 0.2887 0.0000 ( 19227 PWs)   bands (ev):

   -48.2168 -46.9615 -46.1514 -45.9694  -5.3576  -5.1783  -5.1488  -5.1218
    -4.9868  -4.9284  -4.6322  -4.5218  -4.4822  -4.4151  -4.3266  -4.1251
    -4.0948  -4.0179  -3.9381  -3.6896  -2.7135  -0.7153   0.4592   0.8842
     2.0089   2.0965   2.3743   3.1599

          k = 0.0000 0.4330 0.0000 ( 19265 PWs)   bands (ev):

   -48.2168 -46.9615 -46.1513 -45.9695  -5.3050  -5.1294  -5.0837  -4.9543
    -4.7829  -4.7797  -4.6137  -4.4842  -4.4165  -4.3944  -4.3681  -4.2459
    -4.2096  -3.9651  -3.7070  -3.6802  -2.0368  -1.0695  -0.0013   0.6257
     1.2687   1.4812   2.4025   3.1381

          k = 0.0000-0.5774 0.0000 ( 19296 PWs)   bands (ev):

   -48.2168 -46.9615 -46.1513 -45.9695  -5.2973  -5.1082  -5.0579  -4.8704
    -4.6922  -4.6187  -4.6135  -4.5313  -4.4865  -4.4146  -4.3734  -4.3282
    -4.2748  -3.9525  -3.7105  -2.7986  -2.5691  -0.8651  -0.6090   0.6052
     1.0032   1.5664   2.2691   2.9931

          k = 0.1250-0.0722 0.0000 ( 19191 PWs)   bands (ev):

   -48.2168 -46.9615 -46.1514 -45.9694  -5.5407  -5.2560  -5.2287  -5.1569
    -5.1181  -5.0733  -4.6483  -4.6008  -4.5979  -4.3893  -4.3789  -4.0303
    -4.0160  -3.9818  -3.7760  -3.6692  -3.1765  -1.1447   0.2631   1.7054
     2.5935   2.7162   2.9058   3.1090

          k = 0.1250 0.0722 0.0000 ( 19191 PWs)   bands (ev):

   -48.2168 -46.9615 -46.1514 -45.9694  -5.5407  -5.2560  -5.2287  -5.1569
    -5.1181  -5.0733  -4.6483  -4.6008  -4.5979  -4.3893  -4.3789  -4.0303
    -4.0160  -3.9818  -3.7760  -3.6692  -3.1765  -1.1447   0.2631   1.7054
     2.5935   2.7162   2.9058   3.1090

          k = 0.1250 0.2165 0.0000 ( 19214 PWs)   bands (ev):

   -48.2168 -46.9615 -46.1514 -45.9694  -5.3804  -5.2259  -5.1554  -5.1230
    -5.0857  -4.9464  -4.6011  -4.5915  -4.5090  -4.4184  -4.3418  -4.1229
    -4.0248  -4.0002  -3.9138  -3.6993  -2.8611  -0.8518   0.5281   1.4789
     1.6534   2.0991   2.9894   3.1410

          k = 0.1250 0.3608 0.0000 ( 19244 PWs)   bands (ev):

   -48.2168 -46.9615 -46.1513 -45.9694  -5.2614  -5.1389  -5.0798  -5.0542
    -4.9482  -4.7590  -4.5788  -4.5178  -4.4755  -4.4005  -4.3143  -4.1908
    -4.0806  -4.0242  -3.9368  -3.7102  -2.2657  -0.4501  -0.0890   0.7565
     1.1296   1.7432   2.4711   2.9103

          k = 0.1250-0.6495 0.0000 ( 19267 PWs)   bands (ev):

   -48.2168 -46.9615 -46.1513 -45.9694  -5.2403  -5.0736  -5.0489  -4.9131
    -4.8042  -4.6441  -4.5695  -4.5245  -4.4799  -4.4038  -4.3515  -4.3150
    -4.2040  -3.9826  -3.8412  -3.1080  -2.0161  -1.1551  -0.1206   0.5480
     0.5917   1.7627   2.2310   2.5312

          k = 0.1250-0.5052 0.0000 ( 19267 PWs)   bands (ev):

   -48.2168 -46.9615 -46.1513 -45.9694  -5.2403  -5.0736  -5.0489  -4.9131
    -4.8042  -4.6441  -4.5695  -4.5245  -4.4799  -4.4038  -4.3515  -4.3150
    -4.2040  -3.9826  -3.8412  -3.1080  -2.0161  -1.1551  -0.1206   0.5480
     0.5917   1.7627   2.2310   2.5312

          k = 0.1250-0.3608 0.0000 ( 19244 PWs)   bands (ev):

   -48.2168 -46.9615 -46.1513 -45.9694  -5.2614  -5.1389  -5.0798  -5.0542
    -4.9482  -4.7590  -4.5788  -4.5178  -4.4755  -4.4005  -4.3143  -4.1908
    -4.0806  -4.0242  -3.9368  -3.7102  -2.2657  -0.4501  -0.0890   0.7565
     1.1296   1.7432   2.4711   2.9103

          k = 0.1250-0.2165 0.0000 ( 19214 PWs)   bands (ev):

   -48.2168 -46.9615 -46.1514 -45.9694  -5.3804  -5.2259  -5.1554  -5.1230
    -5.0857  -4.9464  -4.6011  -4.5915  -4.5090  -4.4184  -4.3417  -4.1229
    -4.0248  -4.0002  -3.9138  -3.6993  -2.8611  -0.8518   0.5281   1.4790
     1.6534   2.0991   2.9894   3.1410

          k = 0.2500-0.1443 0.0000 ( 19227 PWs)   bands (ev):

   -48.2168 -46.9615 -46.1514 -45.9694  -5.3576  -5.1783  -5.1488  -5.1218
    -4.9868  -4.9284  -4.6322  -4.5218  -4.4822  -4.4151  -4.3266  -4.1251
    -4.0948  -4.0179  -3.9381  -3.6896  -2.7136  -0.7153   0.4592   0.8842
     2.0089   2.0965   2.3743   3.1599

          k = 0.2500 0.0000 0.0000 ( 19214 PWs)   bands (ev):

   -48.2168 -46.9615 -46.1514 -45.9694  -5.3804  -5.2259  -5.1554  -5.1230
    -5.0857  -4.9464  -4.6011  -4.5915  -4.5090  -4.4184  -4.3417  -4.1229
    -4.0248  -4.0002  -3.9138  -3.6993  -2.8611  -0.8518   0.5281   1.4790
     1.6534   2.0991   2.9894   3.1410

          k = 0.2500 0.1443 0.0000 ( 19227 PWs)   bands (ev):

   -48.2168 -46.9615 -46.1514 -45.9694  -5.3576  -5.1783  -5.1488  -5.1218
    -4.9868  -4.9284  -4.6322  -4.5218  -4.4822  -4.4151  -4.3266  -4.1251
    -4.0948  -4.0179  -3.9381  -3.6896  -2.7135  -0.7153   0.4592   0.8842
     2.0089   2.0965   2.3743   3.1596

          k = 0.2500 0.2887 0.0000 ( 19244 PWs)   bands (ev):

   -48.2168 -46.9615 -46.1513 -45.9694  -5.2614  -5.1389  -5.0798  -5.0542
    -4.9482  -4.7590  -4.5788  -4.5178  -4.4755  -4.4005  -4.3143  -4.1908
    -4.0806  -4.0242  -3.9368  -3.7102  -2.2657  -0.4501  -0.0890   0.7565
     1.1296   1.7432   2.4711   2.9103

          k = 0.2500-0.7217 0.0000 ( 19252 PWs)   bands (ev):

   -48.2167 -46.9614 -46.1512 -45.9694  -5.1208  -5.0796  -5.0303  -4.9651
    -4.9188  -4.6183  -4.5683  -4.5184  -4.4634  -4.4275  -4.3479  -4.2665
    -4.0929  -4.0377  -4.0037  -3.2249  -1.6610  -1.0667  -0.3915   0.4688
     1.1583   1.3022   1.9206   2.6411

          k = 0.2500-0.5774 0.0000 ( 19252 PWs)   bands (ev):

   -48.2167 -46.9614 -46.1512 -45.9694  -5.0884  -5.0242  -4.9641  -4.9416
    -4.8448  -4.7842  -4.4896  -4.4669  -4.4380  -4.4150  -4.3523  -4.2866
    -4.1732  -4.0940  -4.0338  -2.3000  -2.2505  -1.3117  -0.1398   0.1404
     0.9900   1.2774   1.8390   2.5013

          k = 0.2500-0.4330 0.0000 ( 19252 PWs)   bands (ev):

   -48.2167 -46.9614 -46.1512 -45.9694  -5.1208  -5.0796  -5.0303  -4.9651
    -4.9188  -4.6183  -4.5683  -4.5184  -4.4634  -4.4275  -4.3479  -4.2665
    -4.0929  -4.0377  -4.0037  -3.2249  -1.6610  -1.0667  -0.3915   0.4688
     1.1583   1.3022   1.9206   2.6411

          k = 0.2500-0.2887 0.0000 ( 19244 PWs)   bands (ev):

   -48.2168 -46.9615 -46.1513 -45.9694  -5.2614  -5.1389  -5.0798  -5.0542
    -4.9482  -4.7590  -4.5788  -4.5178  -4.4755  -4.4005  -4.3143  -4.1908
    -4.0806  -4.0242  -3.9368  -3.7102  -2.2657  -0.4501  -0.0890   0.7565
     1.1296   1.7432   2.4711   2.9103

          k = 0.3750-0.2165 0.0000 ( 19265 PWs)   bands (ev):

   -48.2168 -46.9615 -46.1513 -45.9695  -5.3050  -5.1294  -5.0837  -4.9543
    -4.7829  -4.7797  -4.6137  -4.4842  -4.4165  -4.3944  -4.3681  -4.2459
    -4.2096  -3.9651  -3.7070  -3.6802  -2.0368  -1.0695  -0.0013   0.6257
     1.2687   1.4812   2.4025   3.5023

          k = 0.3750-0.0722 0.0000 ( 19244 PWs)   bands (ev):

   -48.2168 -46.9615 -46.1513 -45.9694  -5.2614  -5.1389  -5.0798  -5.0542
    -4.9482  -4.7590  -4.5788  -4.5178  -4.4755  -4.4005  -4.3143  -4.1908
    -4.0806  -4.0242  -3.9368  -3.7102  -2.2657  -0.4501  -0.0890   0.7565
     1.1296   1.7432   2.4711   2.9103

          k = 0.3750 0.0722 0.0000 ( 19244 PWs)   bands (ev):

   -48.2168 -46.9615 -46.1513 -45.9694  -5.2614  -5.1389  -5.0798  -5.0542
    -4.9482  -4.7590  -4.5788  -4.5178  -4.4755  -4.4005  -4.3143  -4.1908
    -4.0806  -4.0242  -3.9368  -3.7102  -2.2657  -0.4501  -0.0890   0.7565
     1.1296   1.7432   2.4711   2.9103

          k = 0.3750 0.2165 0.0000 ( 19265 PWs)   bands (ev):

   -48.2168 -46.9615 -46.1513 -45.9695  -5.3050  -5.1294  -5.0837  -4.9543
    -4.7829  -4.7797  -4.6137  -4.4842  -4.4165  -4.3944  -4.3681  -4.2459
    -4.2096  -3.9651  -3.7070  -3.6802  -2.0368  -1.0695  -0.0013   0.6257
     1.2687   1.4812   2.4025   3.1381

          k = 0.3750-0.7939 0.0000 ( 19267 PWs)   bands (ev):

   -48.2168 -46.9615 -46.1513 -45.9694  -5.2403  -5.0735  -5.0489  -4.9131
    -4.8042  -4.6441  -4.5695  -4.5245  -4.4799  -4.4038  -4.3515  -4.3150
    -4.2040  -3.9826  -3.8412  -3.1080  -2.0160  -1.1551  -0.1206   0.5480
     0.5917   1.7627   2.2310   2.5312

          k = 0.3750-0.6495 0.0000 ( 19252 PWs)   bands (ev):

   -48.2167 -46.9614 -46.1512 -45.9694  -5.0884  -5.0242  -4.9641  -4.9416
    -4.8448  -4.7842  -4.4896  -4.4669  -4.4380  -4.4150  -4.3523  -4.2866
    -4.1732  -4.0940  -4.0338  -2.3000  -2.2504  -1.3117  -0.1398   0.1404
     0.9900   1.2774   1.8390   2.5013

          k = 0.3750-0.5052 0.0000 ( 19252 PWs)   bands (ev):

   -48.2167 -46.9614 -46.1512 -45.9694  -5.0884  -5.0242  -4.9641  -4.9416
    -4.8448  -4.7842  -4.4896  -4.4669  -4.4380  -4.4150  -4.3523  -4.2866
    -4.1732  -4.0940  -4.0338  -2.3000  -2.2505  -1.3117  -0.1398   0.1404
     0.9900   1.2774   1.8390   2.5013

          k = 0.3750-0.3608 0.0000 ( 19267 PWs)   bands (ev):

   -48.2168 -46.9615 -46.1513 -45.9694  -5.2403  -5.0736  -5.0489  -4.9131
    -4.8042  -4.6441  -4.5695  -4.5245  -4.4799  -4.4038  -4.3515  -4.3150
    -4.2040  -3.9826  -3.8412  -3.1080  -2.0161  -1.1551  -0.1206   0.5480
     0.5917   1.7627   2.2310   2.5312

          k =-0.5000 0.2887 0.0000 ( 19296 PWs)   bands (ev):

   -48.2168 -46.9615 -46.1513 -45.9695  -5.2973  -5.1082  -5.0579  -4.8704
    -4.6922  -4.6187  -4.6135  -4.5313  -4.4865  -4.4146  -4.3734  -4.3282
    -4.2748  -3.9525  -3.7105  -2.7986  -2.5691  -0.8651  -0.6090   0.6052
     1.0032   1.5664   2.2691   2.9931

          k =-0.5000 0.4330 0.0000 ( 19267 PWs)   bands (ev):

   -48.2168 -46.9615 -46.1513 -45.9694  -5.2403  -5.0736  -5.0489  -4.9131
    -4.8042  -4.6441  -4.5695  -4.5245  -4.4799  -4.4038  -4.3515  -4.3150
    -4.2040  -3.9826  -3.8412  -3.1080  -2.0161  -1.1551  -0.1206   0.5480
     0.5917   1.7627   2.2310   2.5312

          k =-0.5000 0.5774 0.0000 ( 19252 PWs)   bands (ev):

   -48.2167 -46.9614 -46.1512 -45.9694  -5.1208  -5.0796  -5.0303  -4.9651
    -4.9188  -4.6183  -4.5683  -4.5184  -4.4634  -4.4275  -4.3479  -4.2665
    -4.0929  -4.0377  -4.0037  -3.2249  -1.6610  -1.0667  -0.3915   0.4688
     1.1583   1.3022   1.9206   2.6411

          k =-0.5000 0.7217 0.0000 ( 19267 PWs)   bands (ev):

   -48.2168 -46.9615 -46.1513 -45.9694  -5.2403  -5.0736  -5.0489  -4.9131
    -4.8042  -4.6441  -4.5695  -4.5245  -4.4799  -4.4038  -4.3515  -4.3150
    -4.2040  -3.9826  -3.8412  -3.1080  -2.0160  -1.1551  -0.1206   0.5480
     0.5917   1.7627   2.2310   2.5312

          k =-0.5000-0.2887 0.0000 ( 19296 PWs)   bands (ev):

   -48.2168 -46.9615 -46.1513 -45.9695  -5.2973  -5.1082  -5.0578  -4.8704
    -4.6922  -4.6187  -4.6135  -4.5313  -4.4865  -4.4146  -4.3734  -4.3282
    -4.2748  -3.9525  -3.7105  -2.7986  -2.5690  -0.8651  -0.6090   0.6052
     1.0032   1.5665   2.2691   2.9931

     the Fermi energy is    -0.0311 ev

!    total energy              =    -312.29247572 Ry
     estimated scf accuracy    <       0.00000004 Ry
     smearing contrib. (-TS)   =      -0.00041854 Ry
     internal energy E=F+TS    =    -312.29205718 Ry

     The total energy is F=E-TS. E is the sum of the following terms:
     one-electron contribution =   -1950.48387301 Ry
     hartree contribution      =     991.56398848 Ry
     xc contribution           =     -81.30433792 Ry
     ewald contribution        =     728.01725490 Ry
     DFT-D3 Dispersion         =      -0.08508964 Ry

     convergence has been achieved in   6 iterations

     negative rho (up, down):  1.519E-05 0.000E+00

     Forces acting on atoms (cartesian axes, Ry/au):

     atom    1 type  1   force =    -0.00000205    0.00000065    0.01950748
     atom    2 type  1   force =    -0.00000075   -0.00000067    0.00731361
     atom    3 type  1   force =    -0.00000008   -0.00000027    0.01125855
     atom    4 type  2   force =     0.00000072    0.00000008   -0.00927330
     atom    5 type  2   force =     0.00000110    0.00000025   -0.01241396
     atom    6 type  2   force =     0.00000050   -0.00000003   -0.00477065
     atom    7 type  2   force =     0.00000057    0.00000000   -0.01162173
     The non-local contrib.  to forces
     atom    1 type  1   force =    -0.00000198    0.00000064    0.02208498
     atom    2 type  1   force =    -0.00000024   -0.00000073    0.01597071
     atom    3 type  1   force =     0.00000047    0.00000023    0.01478490
     atom    4 type  2   force =     0.00000034    0.00000022    0.00908234
     atom    5 type  2   force =     0.00000032    0.00000037   -0.01529114
     atom    6 type  2   force =     0.00000009    0.00000017   -0.06234415
     atom    7 type  2   force =     0.00000059    0.00000013    0.04187603
     The ionic contribution  to forces
     atom    1 type  1   force =    -0.00006787   -0.00001868   43.92487549
     atom    2 type  1   force =     0.00004517    0.00001036    1.45868379
     atom    3 type  1   force =     0.00000313   -0.00000765  -45.59038110
     atom    4 type  2   force =     0.00001426    0.00000518    7.54431994
     atom    5 type  2   force =     0.00000005    0.00000667   -7.40506222
     atom    6 type  2   force =    -0.00000043    0.00000250  -17.32488647
     atom    7 type  2   force =     0.00000569    0.00000162   17.39245057
     The local contribution  to forces
     atom    1 type  1   force =     0.00006767    0.00001998  -43.91860474
     atom    2 type  1   force =    -0.00004609   -0.00001174   -1.46567708
     atom    3 type  1   force =    -0.00000296    0.00000884   45.58273515
     atom    4 type  2   force =    -0.00001424   -0.00000495   -7.56226323
     atom    5 type  2   force =     0.00000044   -0.00000653    7.40708981
     atom    6 type  2   force =     0.00000014   -0.00000287   17.38080807
     atom    7 type  2   force =    -0.00000600   -0.00000206  -17.44431799
     The core correction contribution to forces
     atom    1 type  1   force =     0.00000019    0.00000008   -0.00612358
     atom    2 type  1   force =    -0.00000007   -0.00000007   -0.00263306
     atom    3 type  1   force =     0.00000004    0.00000009    0.00246306
     atom    4 type  2   force =     0.00000000    0.00000000    0.00000000
     atom    5 type  2   force =     0.00000000    0.00000000    0.00000000
     atom    6 type  2   force =     0.00000000    0.00000000    0.00000000
     atom    7 type  2   force =     0.00000000    0.00000000    0.00000000
     The Hubbard contrib.    to forces
     atom    1 type  1   force =     0.00000000    0.00000000    0.00000000
     atom    2 type  1   force =     0.00000000    0.00000000    0.00000000
     atom    3 type  1   force =     0.00000000    0.00000000    0.00000000
     atom    4 type  2   force =     0.00000000    0.00000000    0.00000000
     atom    5 type  2   force =     0.00000000    0.00000000    0.00000000
     atom    6 type  2   force =     0.00000000    0.00000000    0.00000000
     atom    7 type  2   force =     0.00000000    0.00000000    0.00000000
     The SCF correction term to forces
     atom    1 type  1   force =    -0.00000050   -0.00000118    0.00055195
     atom    2 type  1   force =     0.00000020    0.00000175    0.00001400
     atom    3 type  1   force =    -0.00000109   -0.00000156    0.00010581
     atom    4 type  2   force =     0.00000002   -0.00000014    0.00009027
     atom    5 type  2   force =    -0.00000002   -0.00000002   -0.00002451
     atom    6 type  2   force =     0.00000036    0.00000041    0.00004386
     atom    7 type  2   force =    -0.00000003    0.00000054   -0.00007942

     DFT-D3 dispersion contribution to forces:
     atom    1 type  1   force =     0.00000010    0.00000003   -0.00322775
     atom    2 type  1   force =    -0.00000006   -0.00000002    0.00100412
     atom    3 type  1   force =    -0.00000001    0.00000000    0.00159959
     atom    4 type  2   force =     0.00000000    0.00000000   -0.00045376
     atom    5 type  2   force =    -0.00000002   -0.00000001    0.00092296
     atom    6 type  2   force =     0.00000000   -0.00000000    0.00165690
     atom    7 type  2   force =    -0.00000002   -0.00000000   -0.00150206

     Total force =     0.030963     Total SCF correction =     0.000577


     Computing stress (Cartesian axis) and pressure


     negative rho (up, down):  1.519E-05 0.000E+00
          total   stress  (Ry/bohr**3)                   (kbar)     P=      -10.14
  -0.00008242  -0.00000000  -0.00000000          -12.12       -0.00       -0.00
  -0.00000000  -0.00008242  -0.00000000           -0.00      -12.12       -0.00
  -0.00000000  -0.00000000  -0.00004205           -0.00       -0.00       -6.19

     Energy error            =      1.3E-03 Ry
     Gradient error          =      2.0E-02 Ry/Bohr

     number of scf cycles    =   3
     number of bfgs steps    =   2

     energy             old  =    -312.2912112904 Ry
     energy             new  =    -312.2924757228 Ry

     CASE: energy            _new < energy            _old

     new trust radius        =       0.0371685166 bohr
     new conv_thr            =       0.0000001264 Ry


ATOMIC_POSITIONS (angstrom)
Ag            1.1040737947        0.6374331947       14.3917139509
Ag            3.3121694735        1.9122818547       12.7207765072
Ag            5.5202774943        3.1871360696       10.9278904370
Li            5.5202860039        3.1871360398       13.6419753834
Li            1.1040549168        0.6374256264       11.7726951252
Li            3.3121668299        1.9122800064        9.9886710641
Li            5.5202858437        3.1871371596       16.3224981375



     Writing config-only to output data dir ./LiAg_mp-2426_111_ontop_1/LiAg_mp-2426_111_ontop_1.save/
     NEW-OLD atomic charge density approx. for the potential

     negative rho (up, down):  1.637E-05 0.000E+00

     total cpu time spent up to now is       18.1 secs

     per-process dynamical memory:   214.2 Mb

     Self-consistent Calculation

     iteration #  1     ecut=    55.00 Ry     beta= 0.30
     Davidson diagonalization with overlap
     ethr =  1.00E-06,  avg # of iterations =  7.4

     negative rho (up, down):  1.584E-05 0.000E+00

     total cpu time spent up to now is       18.7 secs

     total energy              =    -312.29416413 Ry
     estimated scf accuracy    <       0.00008825 Ry

     iteration #  2     ecut=    55.00 Ry     beta= 0.30
     Davidson diagonalization with overlap
     ethr =  1.96E-07,  avg # of iterations =  2.4

     negative rho (up, down):  1.885E-05 0.000E+00

     total cpu time spent up to now is       18.9 secs

     total energy              =    -312.29413775 Ry
     estimated scf accuracy    <       0.00086526 Ry

     iteration #  3     ecut=    55.00 Ry     beta= 0.30
     Davidson diagonalization with overlap
     ethr =  1.96E-07,  avg # of iterations =  1.7

     negative rho (up, down):  1.609E-05 0.000E+00

     total cpu time spent up to now is       19.1 secs

     total energy              =    -312.29418818 Ry
     estimated scf accuracy    <       0.00001207 Ry

     iteration #  4     ecut=    55.00 Ry     beta= 0.30
     Davidson diagonalization with overlap
     ethr =  2.68E-08,  avg # of iterations =  2.0

     negative rho (up, down):  1.558E-05 0.000E+00

     total cpu time spent up to now is       19.4 secs

     total energy              =    -312.29418941 Ry
     estimated scf accuracy    <       0.00000387 Ry

     iteration #  5     ecut=    55.00 Ry     beta= 0.30
     Davidson diagonalization with overlap
     ethr =  8.59E-09,  avg # of iterations =  2.1

     negative rho (up, down):  1.551E-05 0.000E+00

     total cpu time spent up to now is       19.6 secs

     total energy              =    -312.29419006 Ry
     estimated scf accuracy    <       0.00000047 Ry

     iteration #  6     ecut=    55.00 Ry     beta= 0.30
     Davidson diagonalization with overlap
     ethr =  1.05E-09,  avg # of iterations =  4.9

     negative rho (up, down):  1.525E-05 0.000E+00

     total cpu time spent up to now is       20.0 secs

     End of self-consistent calculation

          k = 0.0000 0.0000 0.0000 ( 19117 PWs)   bands (ev):

   -48.1868 -46.9674 -46.1410 -45.9689  -5.6354  -5.2560  -5.2560  -5.1443
    -5.1443  -5.1205  -4.6570  -4.6190  -4.6190  -4.3689  -4.3689  -3.9801
    -3.9801  -3.9796  -3.6535  -3.6535  -3.3499  -1.2875   0.1329   1.5874
     2.5518   2.7246   3.7409   4.1062

          k = 0.0000 0.1443 0.0000 ( 19191 PWs)   bands (ev):

   -48.1870 -46.9675 -46.1411 -45.9690  -5.5297  -5.2428  -5.2150  -5.1459
    -5.1070  -5.0654  -4.6360  -4.5876  -4.5862  -4.3821  -4.3721  -4.0198
    -4.0064  -3.9728  -3.7684  -3.6615  -3.1738  -1.1362   0.2785   1.7193
     2.5990   2.7191   2.9023   3.1158

          k = 0.0000 0.2887 0.0000 ( 19227 PWs)   bands (ev):

   -48.1870 -46.9675 -46.1410 -45.9690  -5.3448  -5.1674  -5.1353  -5.1104
    -4.9762  -4.9203  -4.6196  -4.5112  -4.4696  -4.4076  -4.3192  -4.1132
    -4.0835  -4.0119  -3.9284  -3.6819  -2.7119  -0.7075   0.4703   0.8965
     2.0163   2.1097   2.3753   3.1614

          k = 0.0000 0.4330 0.0000 ( 19265 PWs)   bands (ev):

   -48.1870 -46.9675 -46.1410 -45.9690  -5.2922  -5.1197  -5.0707  -4.9424
    -4.7742  -4.7702  -4.6003  -4.4745  -4.4103  -4.3884  -4.3522  -4.2374
    -4.1945  -3.9552  -3.6995  -3.6729  -2.0353  -1.0624   0.0058   0.6281
     1.2765   1.4972   2.4155   3.1448

          k = 0.0000-0.5774 0.0000 ( 19296 PWs)   bands (ev):

   -48.1870 -46.9675 -46.1410 -45.9691  -5.2849  -5.0990  -5.0451  -4.8591
    -4.6809  -4.6059  -4.6055  -4.5223  -4.4775  -4.4093  -4.3662  -4.3147
    -4.2562  -3.9426  -3.7031  -2.7901  -2.5633  -0.8607  -0.6104   0.6101
     1.0112   1.5842   2.2855   3.0005

          k = 0.1250-0.0722 0.0000 ( 19191 PWs)   bands (ev):

   -48.1870 -46.9675 -46.1411 -45.9690  -5.5297  -5.2428  -5.2150  -5.1459
    -5.1070  -5.0654  -4.6360  -4.5876  -4.5862  -4.3821  -4.3721  -4.0198
    -4.0064  -3.9728  -3.7684  -3.6615  -3.1738  -1.1362   0.2785   1.7193
     2.5990   2.7191   2.9023   3.1158

          k = 0.1250 0.0722 0.0000 ( 19191 PWs)   bands (ev):

   -48.1870 -46.9675 -46.1411 -45.9690  -5.5297  -5.2428  -5.2150  -5.1459
    -5.1070  -5.0654  -4.6360  -4.5876  -4.5862  -4.3821  -4.3721  -4.0198
    -4.0064  -3.9728  -3.7684  -3.6615  -3.1738  -1.1362   0.2785   1.7193
     2.5990   2.7191   2.9023   3.1158

          k = 0.1250 0.2165 0.0000 ( 19214 PWs)   bands (ev):

   -48.1870 -46.9675 -46.1410 -45.9690  -5.3680  -5.2133  -5.1415  -5.1123
    -5.0766  -4.9376  -4.5877  -4.5808  -4.4965  -4.4112  -4.3350  -4.1109
    -4.0153  -3.9915  -3.9055  -3.6915  -2.8591  -0.8437   0.5432   1.4840
     1.6673   2.1082   2.9912   3.1367

          k = 0.1250 0.3608 0.0000 ( 19244 PWs)   bands (ev):

   -48.1869 -46.9675 -46.1410 -45.9690  -5.2480  -5.1271  -5.0670  -5.0439
    -4.9391  -4.7497  -4.5664  -4.5079  -4.4647  -4.3939  -4.3006  -4.1816
    -4.0708  -4.0140  -3.9283  -3.7029  -2.2644  -0.4443  -0.0788   0.7643
     1.1393   1.7524   2.4812   2.9119

          k = 0.1250-0.6495 0.0000 ( 19267 PWs)   bands (ev):

   -48.1870 -46.9675 -46.1410 -45.9690  -5.2278  -5.0627  -5.0373  -4.9012
    -4.7954  -4.6339  -4.5587  -4.5107  -4.4750  -4.3961  -4.3435  -4.3000
    -4.1904  -3.9717  -3.8339  -3.1008  -2.0104  -1.1519  -0.1184   0.5548
     0.5982   1.7781   2.2457   2.5351

          k = 0.1250-0.5052 0.0000 ( 19267 PWs)   bands (ev):

   -48.1870 -46.9675 -46.1410 -45.9690  -5.2278  -5.0627  -5.0373  -4.9012
    -4.7954  -4.6339  -4.5587  -4.5107  -4.4750  -4.3961  -4.3435  -4.3000
    -4.1904  -3.9717  -3.8339  -3.1008  -2.0104  -1.1519  -0.1184   0.5548
     0.5982   1.7781   2.2457   2.5351

          k = 0.1250-0.3608 0.0000 ( 19244 PWs)   bands (ev):

   -48.1869 -46.9675 -46.1410 -45.9690  -5.2480  -5.1271  -5.0670  -5.0439
    -4.9391  -4.7497  -4.5664  -4.5079  -4.4647  -4.3939  -4.3006  -4.1816
    -4.0708  -4.0140  -3.9283  -3.7029  -2.2644  -0.4443  -0.0788   0.7643
     1.1393   1.7524   2.4812   2.9119

          k = 0.1250-0.2165 0.0000 ( 19214 PWs)   bands (ev):

   -48.1870 -46.9675 -46.1410 -45.9690  -5.3680  -5.2133  -5.1415  -5.1123
    -5.0766  -4.9376  -4.5877  -4.5808  -4.4965  -4.4112  -4.3350  -4.1109
    -4.0153  -3.9915  -3.9055  -3.6915  -2.8592  -0.8437   0.5432   1.4840
     1.6673   2.1082   2.9912   3.1367

          k = 0.2500-0.1443 0.0000 ( 19227 PWs)   bands (ev):

   -48.1870 -46.9675 -46.1410 -45.9690  -5.3448  -5.1674  -5.1353  -5.1104
    -4.9762  -4.9203  -4.6196  -4.5112  -4.4696  -4.4076  -4.3192  -4.1132
    -4.0835  -4.0119  -3.9284  -3.6819  -2.7119  -0.7075   0.4703   0.8965
     2.0163   2.1097   2.3753   3.1614

          k = 0.2500 0.0000 0.0000 ( 19214 PWs)   bands (ev):

   -48.1870 -46.9675 -46.1410 -45.9690  -5.3680  -5.2133  -5.1415  -5.1123
    -5.0766  -4.9376  -4.5877  -4.5808  -4.4965  -4.4112  -4.3350  -4.1109
    -4.0153  -3.9915  -3.9055  -3.6915  -2.8592  -0.8437   0.5432   1.4840
     1.6673   2.1082   2.9912   3.1367

          k = 0.2500 0.1443 0.0000 ( 19227 PWs)   bands (ev):

   -48.1870 -46.9675 -46.1410 -45.9690  -5.3448  -5.1674  -5.1353  -5.1104
    -4.9763  -4.9203  -4.6196  -4.5112  -4.4696  -4.4076  -4.3192  -4.1132
[...]

   -47.8510 -47.0267 -46.2143 -46.1357  -5.3949  -5.2204  -5.1936  -5.1534
    -5.0078  -4.9491  -4.7413  -4.6162  -4.5790  -4.5503  -4.4536  -4.2570
    -4.1547  -4.1001  -3.9909  -3.8066  -2.8712  -0.6855   0.4718   0.9828
     1.8744   2.1548   2.4491   3.2665

          k = 0.0000 0.4330 0.0000 ( 19265 PWs)   bands (ev):

   -47.8511 -47.0267 -46.2142 -46.1358  -5.3456  -5.1590  -5.1198  -5.0195
    -4.8298  -4.8295  -4.7157  -4.5745  -4.5364  -4.5325  -4.4507  -4.2953
    -4.2623  -4.0538  -3.8230  -3.7527  -2.2131  -1.1536  -0.0148   0.5117
     1.1404   1.7042   2.5501   3.3513

          k = 0.0000-0.5774 0.0000 ( 19296 PWs)   bands (ev):

   -47.8511 -47.0267 -46.2142 -46.1359  -5.3379  -5.1359  -5.0913  -4.9410
    -4.8064  -4.7153  -4.7116  -4.5795  -4.5522  -4.5172  -4.4549  -4.3851
    -4.3340  -4.0357  -3.8267  -2.8602  -2.6926  -0.9983  -0.8248   0.6347
     0.8772   1.7042   2.5329   3.2244

          k = 0.1250-0.0722 0.0000 ( 19191 PWs)   bands (ev):

   -47.8510 -47.0267 -46.2144 -46.1357  -5.5707  -5.3053  -5.2804  -5.1772
    -5.1254  -5.0885  -4.7567  -4.6989  -4.6988  -4.5230  -4.5130  -4.1471
    -4.0831  -4.0631  -3.8765  -3.7879  -3.3173  -1.0930   0.4621   2.0040
     2.5018   2.8141   2.9430   2.9657

          k = 0.1250 0.0722 0.0000 ( 19191 PWs)   bands (ev):

   -47.8510 -47.0267 -46.2144 -46.1357  -5.5707  -5.3053  -5.2804  -5.1772
    -5.1254  -5.0885  -4.7567  -4.6989  -4.6988  -4.5230  -4.5130  -4.1471
    -4.0831  -4.0631  -3.8765  -3.7879  -3.3173  -1.0930   0.4621   2.0040
     2.5018   2.8141   2.9430   2.9657

          k = 0.1250 0.2165 0.0000 ( 19214 PWs)   bands (ev):

   -47.8510 -47.0267 -46.2143 -46.1357  -5.4147  -5.2772  -5.2052  -5.1447
    -5.0950  -4.9675  -4.7140  -4.6907  -4.5952  -4.5555  -4.4734  -4.2360
    -4.1116  -4.0823  -3.9739  -3.8147  -3.0135  -0.8114   0.7199   1.3550
     1.6207   2.3306   2.9794   3.1853

          k = 0.1250 0.3608 0.0000 ( 19244 PWs)   bands (ev):

   -47.8510 -47.0266 -46.2142 -46.1358  -5.3050  -5.1893  -5.1229  -5.0773
    -4.9721  -4.8050  -4.6861  -4.6153  -4.6007  -4.5053  -4.3965  -4.3260
    -4.1564  -4.0864  -3.9882  -3.8240  -2.4363  -0.5289  -0.0670   0.6579
     1.1675   1.7674   2.5939   2.8248

          k = 0.1250-0.6495 0.0000 ( 19267 PWs)   bands (ev):

   -47.8510 -47.0266 -46.2141 -46.1358  -5.2861  -5.1069  -5.0801  -4.9793
    -4.8459  -4.7525  -4.6650  -4.6170  -4.5446  -4.5232  -4.4468  -4.3842
    -4.2500  -4.0667  -3.9291  -3.1997  -2.1483  -1.2948  -0.3079   0.4743
     0.6008   1.8745   2.3055   2.5568

          k = 0.1250-0.5052 0.0000 ( 19267 PWs)   bands (ev):

   -47.8510 -47.0266 -46.2141 -46.1358  -5.2861  -5.1069  -5.0801  -4.9793
    -4.8459  -4.7525  -4.6650  -4.6170  -4.5446  -4.5232  -4.4468  -4.3842
    -4.2500  -4.0667  -3.9291  -3.1997  -2.1483  -1.2948  -0.3079   0.4743
     0.6008   1.8745   2.3055   2.5568

          k = 0.1250-0.3608 0.0000 ( 19244 PWs)   bands (ev):

   -47.8510 -47.0266 -46.2142 -46.1358  -5.3050  -5.1893  -5.1229  -5.0773
    -4.9721  -4.8050  -4.6861  -4.6153  -4.6007  -4.5053  -4.3965  -4.3260
    -4.1564  -4.0864  -3.9882  -3.8240  -2.4363  -0.5289  -0.0670   0.6579
     1.1675   1.7674   2.5939   2.8248

          k = 0.1250-0.2165 0.0000 ( 19214 PWs)   bands (ev):

   -47.8510 -47.0267 -46.2143 -46.1357  -5.4147  -5.2772  -5.2052  -5.1447
    -5.0950  -4.9675  -4.7140  -4.6907  -4.5952  -4.5555  -4.4734  -4.2360
    -4.1116  -4.0823  -3.9739  -3.8147  -3.0135  -0.8114   0.7199   1.3550
     1.6207   2.3306   2.9795   3.1853

          k = 0.2500-0.1443 0.0000 ( 19227 PWs)   bands (ev):

   -47.8510 -47.0267 -46.2143 -46.1357  -5.3949  -5.2204  -5.1936  -5.1534
    -5.0078  -4.9491  -4.7413  -4.6162  -4.5790  -4.5503  -4.4536  -4.2570
    -4.1547  -4.1001  -3.9909  -3.8066  -2.8712  -0.6855   0.4718   0.9828
     1.8744   2.1548   2.4491   3.2665

          k = 0.2500 0.0000 0.0000 ( 19214 PWs)   bands (ev):

   -47.8510 -47.0267 -46.2143 -46.1357  -5.4147  -5.2772  -5.2052  -5.1447
    -5.0950  -4.9675  -4.7140  -4.6907  -4.5952  -4.5555  -4.4734  -4.2360
    -4.1116  -4.0823  -3.9739  -3.8147  -3.0135  -0.8114   0.7199   1.3550
     1.6207   2.3306   2.9796   3.1853

          k = 0.2500 0.1443 0.0000 ( 19227 PWs)   bands (ev):

   -47.8510 -47.0267 -46.2143 -46.1357  -5.3949  -5.2204  -5.1936  -5.1534
    -5.0078  -4.9491  -4.7413  -4.6162  -4.5790  -4.5503  -4.4536  -4.2570
    -4.1547  -4.1001  -3.9909  -3.8066  -2.8712  -0.6855   0.4718   0.9828
     1.8744   2.1548   2.4491   3.2665

          k = 0.2500 0.2887 0.0000 ( 19244 PWs)   bands (ev):

   -47.8510 -47.0266 -46.2142 -46.1358  -5.3050  -5.1893  -5.1229  -5.0773
    -4.9721  -4.8050  -4.6861  -4.6153  -4.6007  -4.5053  -4.3965  -4.3260
    -4.1564  -4.0864  -3.9882  -3.8240  -2.4363  -0.5289  -0.0670   0.6579
     1.1675   1.7674   2.5939   2.8248

          k = 0.2500-0.7217 0.0000 ( 19252 PWs)   bands (ev):

   -47.8510 -47.0266 -46.2141 -46.1358  -5.1764  -5.1481  -5.0429  -5.0025
    -4.9433  -4.7212  -4.6492  -4.6051  -4.5852  -4.5151  -4.4179  -4.4025
    -4.1844  -4.0814  -4.0548  -3.3258  -1.8479  -1.1830  -0.4765   0.4608
     0.9861   1.2138   2.1022   2.8053

          k = 0.2500-0.5774 0.0000 ( 19252 PWs)   bands (ev):

   -47.8510 -47.0266 -46.2140 -46.1358  -5.1558  -5.0586  -5.0132  -4.9848
    -4.8772  -4.8267  -4.6116  -4.5832  -4.5454  -4.5134  -4.4831  -4.3476
    -4.2294  -4.1531  -4.0782  -2.4004  -2.3769  -1.4666  -0.2836   0.0175
     0.8538   1.2093   1.9445   2.8131

          k = 0.2500-0.4330 0.0000 ( 19252 PWs)   bands (ev):

   -47.8510 -47.0266 -46.2141 -46.1358  -5.1764  -5.1481  -5.0429  -5.0025
    -4.9433  -4.7212  -4.6492  -4.6051  -4.5852  -4.5151  -4.4179  -4.4025
    -4.1844  -4.0814  -4.0548  -3.3258  -1.8479  -1.1830  -0.4765   0.4608
     0.9861   1.2138   2.1022   2.8053

          k = 0.2500-0.2887 0.0000 ( 19244 PWs)   bands (ev):

   -47.8510 -47.0266 -46.2142 -46.1358  -5.3050  -5.1893  -5.1229  -5.0773
    -4.9721  -4.8050  -4.6861  -4.6153  -4.6007  -4.5053  -4.3965  -4.3260
    -4.1564  -4.0864  -3.9882  -3.8240  -2.4363  -0.5289  -0.0670   0.6579
     1.1675   1.7674   2.5939   2.8248

          k = 0.3750-0.2165 0.0000 ( 19265 PWs)   bands (ev):

   -47.8511 -47.0267 -46.2142 -46.1358  -5.3456  -5.1590  -5.1198  -5.0195
    -4.8298  -4.8295  -4.7157  -4.5745  -4.5364  -4.5325  -4.4507  -4.2953
    -4.2623  -4.0538  -3.8230  -3.7527  -2.2131  -1.1536  -0.0148   0.5117
     1.1404   1.7042   2.5500   3.3513

          k = 0.3750-0.0722 0.0000 ( 19244 PWs)   bands (ev):

   -47.8510 -47.0266 -46.2142 -46.1358  -5.3050  -5.1893  -5.1229  -5.0773
    -4.9721  -4.8050  -4.6861  -4.6153  -4.6007  -4.5053  -4.3965  -4.3260
    -4.1564  -4.0864  -3.9882  -3.8240  -2.4363  -0.5289  -0.0670   0.6579
     1.1675   1.7674   2.5939   2.8248

          k = 0.3750 0.0722 0.0000 ( 19244 PWs)   bands (ev):

   -47.8510 -47.0266 -46.2142 -46.1358  -5.3050  -5.1893  -5.1229  -5.0773
    -4.9721  -4.8050  -4.6861  -4.6153  -4.6007  -4.5053  -4.3965  -4.3260
    -4.1564  -4.0864  -3.9882  -3.8240  -2.4363  -0.5289  -0.0670   0.6579
     1.1675   1.7674   2.5939   2.8248

          k = 0.3750 0.2165 0.0000 ( 19265 PWs)   bands (ev):

   -47.8511 -47.0267 -46.2142 -46.1358  -5.3456  -5.1590  -5.1198  -5.0195
    -4.8298  -4.8295  -4.7157  -4.5745  -4.5364  -4.5325  -4.4507  -4.2953
    -4.2623  -4.0538  -3.8230  -3.7527  -2.2131  -1.1536  -0.0148   0.5117
     1.1404   1.7042   2.5500   3.3513

          k = 0.3750-0.7939 0.0000 ( 19267 PWs)   bands (ev):

   -47.8510 -47.0266 -46.2141 -46.1358  -5.2861  -5.1069  -5.0801  -4.9793
    -4.8459  -4.7525  -4.6650  -4.6170  -4.5446  -4.5232  -4.4468  -4.3842
    -4.2500  -4.0667  -3.9291  -3.1997  -2.1483  -1.2948  -0.3079   0.4743
     0.6008   1.8745   2.3055   2.5568

          k = 0.3750-0.6495 0.0000 ( 19252 PWs)   bands (ev):

   -47.8510 -47.0266 -46.2140 -46.1358  -5.1558  -5.0586  -5.0132  -4.9848
    -4.8772  -4.8267  -4.6116  -4.5832  -4.5454  -4.5134  -4.4831  -4.3476
    -4.2294  -4.1531  -4.0782  -2.4004  -2.3769  -1.4666  -0.2836   0.0175
     0.8538   1.2093   1.9445   2.8131

          k = 0.3750-0.5052 0.0000 ( 19252 PWs)   bands (ev):

   -47.8510 -47.0266 -46.2140 -46.1358  -5.1558  -5.0586  -5.0132  -4.9848
    -4.8772  -4.8267  -4.6116  -4.5832  -4.5454  -4.5134  -4.4831  -4.3476
    -4.2294  -4.1531  -4.0782  -2.4004  -2.3769  -1.4666  -0.2836   0.0175
     0.8538   1.2093   1.9445   2.8131

          k = 0.3750-0.3608 0.0000 ( 19267 PWs)   bands (ev):

   -47.8510 -47.0266 -46.2141 -46.1358  -5.2861  -5.1069  -5.0801  -4.9793
    -4.8459  -4.7525  -4.6650  -4.6170  -4.5446  -4.5232  -4.4468  -4.3842
    -4.2500  -4.0667  -3.9291  -3.1997  -2.1483  -1.2948  -0.3079   0.4743
     0.6008   1.8745   2.3055   2.5568

          k =-0.5000 0.2887 0.0000 ( 19296 PWs)   bands (ev):

   -47.8511 -47.0267 -46.2142 -46.1359  -5.3379  -5.1359  -5.0913  -4.9410
    -4.8064  -4.7153  -4.7116  -4.5795  -4.5522  -4.5172  -4.4549  -4.3851
    -4.3340  -4.0357  -3.8267  -2.8602  -2.6926  -0.9983  -0.8248   0.6347
     0.8772   1.7042   2.5329   3.2244

          k =-0.5000 0.4330 0.0000 ( 19267 PWs)   bands (ev):

   -47.8510 -47.0266 -46.2141 -46.1358  -5.2861  -5.1069  -5.0801  -4.9793
    -4.8459  -4.7525  -4.6650  -4.6170  -4.5446  -4.5232  -4.4468  -4.3842
    -4.2500  -4.0667  -3.9291  -3.1997  -2.1483  -1.2948  -0.3079   0.4743
     0.6008   1.8745   2.3055   2.5568

          k =-0.5000 0.5774 0.0000 ( 19252 PWs)   bands (ev):

   -47.8510 -47.0266 -46.2141 -46.1358  -5.1764  -5.1481  -5.0429  -5.0025
    -4.9433  -4.7212  -4.6492  -4.6051  -4.5852  -4.5151  -4.4179  -4.4025
    -4.1844  -4.0814  -4.0548  -3.3258  -1.8479  -1.1830  -0.4765   0.4608
     0.9861   1.2138   2.1022   2.8053

          k =-0.5000 0.7217 0.0000 ( 19267 PWs)   bands (ev):

   -47.8510 -47.0266 -46.2141 -46.1358  -5.2861  -5.1069  -5.0801  -4.9793
    -4.8459  -4.7525  -4.6650  -4.6170  -4.5446  -4.5232  -4.4468  -4.3842
    -4.2500  -4.0667  -3.9291  -3.1997  -2.1483  -1.2948  -0.3079   0.4743
     0.6008   1.8745   2.3055   2.5568

          k =-0.5000-0.2887 0.0000 ( 19296 PWs)   bands (ev):

   -47.8511 -47.0267 -46.2142 -46.1359  -5.3379  -5.1359  -5.0913  -4.9410
    -4.8064  -4.7153  -4.7116  -4.5795  -4.5522  -4.5172  -4.4549  -4.3851
    -4.3340  -4.0357  -3.8267  -2.8602  -2.6926  -0.9983  -0.8248   0.6347
     0.8772   1.7042   2.5329   3.2244

     the Fermi energy is    -0.1070 ev

!    total energy              =    -312.30380742 Ry
     estimated scf accuracy    <          9.5E-09 Ry
     smearing contrib. (-TS)   =       0.00055473 Ry
     internal energy E=F+TS    =    -312.30436215 Ry

     The total energy is F=E-TS. E is the sum of the following terms:
     one-electron contribution =   -1953.11535841 Ry
     hartree contribution      =     992.79523169 Ry
     xc contribution           =     -81.33184673 Ry
     ewald contribution        =     729.43387841 Ry
     DFT-D3 Dispersion         =      -0.08626711 Ry

     convergence has been achieved in   6 iterations

     negative rho (up, down):  1.987E-05 0.000E+00

     Forces acting on atoms (cartesian axes, Ry/au):

     atom    1 type  1   force =    -0.00000015   -0.00000036   -0.00090221
     atom    2 type  1   force =    -0.00000007    0.00000011    0.00056192
     atom    3 type  1   force =     0.00000001   -0.00000001   -0.00080138
     atom    4 type  2   force =     0.00000008    0.00000019    0.00006951
     atom    5 type  2   force =     0.00000009   -0.00000003    0.00009820
     atom    6 type  2   force =     0.00000004   -0.00000000    0.00031829
     atom    7 type  2   force =     0.00000001    0.00000011    0.00065567
     The non-local contrib.  to forces
     atom    1 type  1   force =    -0.00000031   -0.00000059    0.01502288
     atom    2 type  1   force =     0.00000019   -0.00000018    0.02836734
     atom    3 type  1   force =     0.00000033   -0.00000022    0.03829717
     atom    4 type  2   force =     0.00000008    0.00000003    0.01130018
     atom    5 type  2   force =     0.00000009   -0.00000014   -0.00710986
     atom    6 type  2   force =    -0.00000004   -0.00000005   -0.05655267
     atom    7 type  2   force =     0.00000000   -0.00000006    0.04939908
     The ionic contribution  to forces
     atom    1 type  1   force =     0.00000007   -0.00000332   44.61554806
     atom    2 type  1   force =    -0.00000320    0.00001081    3.52032477
     atom    3 type  1   force =     0.00000010   -0.00000174  -46.10721383
     atom    4 type  2   force =     0.00000187    0.00000141    5.46494452
     atom    5 type  2   force =     0.00000316   -0.00000492   -7.98692453
     atom    6 type  2   force =     0.00000007   -0.00000106  -17.05443807
     atom    7 type  2   force =    -0.00000208   -0.00000118   17.54775909
     The local contribution  to forces
     atom    1 type  1   force =    -0.00000013    0.00000354  -44.62586200
     atom    2 type  1   force =     0.00000342   -0.00001129   -3.54843463
     atom    3 type  1   force =     0.00000018    0.00000238   46.06334964
     atom    4 type  2   force =    -0.00000186   -0.00000131   -5.47545861
     atom    5 type  2   force =    -0.00000330    0.00000493    7.99337936
     atom    6 type  2   force =    -0.00000010    0.00000092   17.10976367
     atom    7 type  2   force =     0.00000212    0.00000121  -17.59490316
     The core correction contribution to forces
     atom    1 type  1   force =    -0.00000001    0.00000001   -0.00320595
     atom    2 type  1   force =     0.00000003   -0.00000004   -0.00092493
     atom    3 type  1   force =     0.00000003    0.00000000    0.00390284
     atom    4 type  2   force =     0.00000000    0.00000000    0.00000000
     atom    5 type  2   force =     0.00000000    0.00000000    0.00000000
     atom    6 type  2   force =     0.00000000    0.00000000    0.00000000
     atom    7 type  2   force =     0.00000000    0.00000000    0.00000000
     The Hubbard contrib.    to forces
     atom    1 type  1   force =     0.00000000    0.00000000    0.00000000
     atom    2 type  1   force =     0.00000000    0.00000000    0.00000000
     atom    3 type  1   force =     0.00000000    0.00000000    0.00000000
     atom    4 type  2   force =     0.00000000    0.00000000    0.00000000
     atom    5 type  2   force =     0.00000000    0.00000000    0.00000000
     atom    6 type  2   force =     0.00000000    0.00000000    0.00000000
     atom    7 type  2   force =     0.00000000    0.00000000    0.00000000
     The SCF correction term to forces
     atom    1 type  1   force =     0.00000023   -0.00000011   -0.00004914
     atom    2 type  1   force =    -0.00000051    0.00000071   -0.00013045
     atom    3 type  1   force =    -0.00000063   -0.00000057   -0.00009451
     atom    4 type  2   force =    -0.00000000   -0.00000005   -0.00001285
     atom    5 type  2   force =     0.00000015   -0.00000003   -0.00004719
     atom    6 type  2   force =     0.00000011    0.00000006   -0.00005896
     atom    7 type  2   force =    -0.00000003    0.00000003   -0.00000774

     DFT-D3 dispersion contribution to forces:
     atom    1 type  1   force =     0.00000000    0.00000000   -0.00236614
     atom    2 type  1   force =     0.00000001   -0.00000002    0.00134976
     atom    3 type  1   force =    -0.00000000    0.00000001    0.00094724
     atom    4 type  2   force =    -0.00000000   -0.00000001   -0.00071380
     atom    5 type  2   force =    -0.00000000    0.00000001    0.00079036
     atom    6 type  2   force =    -0.00000000    0.00000000    0.00159425
     atom    7 type  2   force =     0.00000000   -0.00000000   -0.00160167

     Total force =     0.001522     Total SCF correction =     0.000185
     SCF correction compared to forces is large: reduce conv_thr to get better values


     Computing stress (Cartesian axis) and pressure


     negative rho (up, down):  1.987E-05 0.000E+00
          total   stress  (Ry/bohr**3)                   (kbar)     P=       -9.28
  -0.00007891   0.00000000  -0.00000000          -11.61        0.00       -0.00
   0.00000000  -0.00007891   0.00000000            0.00      -11.61        0.00
  -0.00000000   0.00000000  -0.00003147           -0.00        0.00       -4.63

     Energy error            =      4.0E-05 Ry
     Gradient error          =      9.0E-04 Ry/Bohr

     bfgs converged in  24 scf cycles and  23 bfgs steps
     (criteria: energy <  1.0E-04 Ry, force <  1.0E-03 Ry/Bohr)

     End of BFGS Geometry Optimization

     Final energy             =    -312.3038074158 Ry

     File ./LiAg_mp-2426_111_ontop_1/LiAg_mp-2426_111_ontop_1.bfgs deleted, as requested
Begin final coordinates

ATOMIC_POSITIONS (angstrom)
Ag            1.1040617983        0.6374276128       14.5649400537
Ag            3.3121721614        1.9122803083       12.9524609539
Ag            5.5202818551        3.1871372694       10.9616599859
Li            5.5202826005        3.1871330325       13.4875723714
Li            1.1040594479        0.6374307140       11.7566810573
Li            3.3121706548        1.9122851892       10.0504240159
Li            5.5202858387        3.1871358250       15.9924821672
End final coordinates



     Writing all to output data dir ./LiAg_mp-2426_111_ontop_1/LiAg_mp-2426_111_ontop_1.save/

     init_run     :      5.79s CPU      6.35s WALL (       1 calls)
     electrons    :     45.66s CPU     54.97s WALL (      24 calls)
     update_pot   :      5.39s CPU      5.73s WALL (      23 calls)
     forces       :      4.32s CPU      4.93s WALL (      24 calls)
     force_dftd3  :      0.19s CPU      0.34s WALL (      24 calls)
     stress       :     12.43s CPU     12.95s WALL (      24 calls)
     stres_dftd3  :      0.15s CPU      0.27s WALL (      24 calls)

     Called by init_run:
     wfcinit      :      0.23s CPU      0.50s WALL (       1 calls)
     potinit      :      0.88s CPU      0.90s WALL (       1 calls)
     hinit0       :      4.56s CPU      4.79s WALL (       1 calls)

     Called by electrons:
     c_bands      :     35.17s CPU     39.79s WALL (     176 calls)
     sum_band     :      6.71s CPU      8.17s WALL (     176 calls)
     v_of_rho     :      1.81s CPU      2.46s WALL (     190 calls)
     newd         :      1.05s CPU      1.15s WALL (     190 calls)
     mix_rho      :      0.22s CPU      0.23s WALL (     176 calls)
     energy_dftd3 :      0.03s CPU      0.03s WALL (      24 calls)

     Called by c_bands:
     init_us_2    :      0.32s CPU      0.36s WALL (    3609 calls)
     init_us_2:cp :      0.32s CPU      0.35s WALL (    3609 calls)
     cegterg      :     33.12s CPU     35.65s WALL (    1584 calls)

     Called by *egterg:
     cdiaghg      :      6.71s CPU      6.85s WALL (    6545 calls)
     h_psi        :     22.59s CPU     24.75s WALL (    6851 calls)
     s_psi        :      0.67s CPU      0.71s WALL (    6851 calls)
     g_psi        :      0.08s CPU      0.09s WALL (    5258 calls)

     Called by h_psi:
     h_psi:calbec :      1.68s CPU      2.17s WALL (    6851 calls)
     vloc_psi     :     20.17s CPU     21.79s WALL (    6851 calls)
     add_vuspsi   :      0.67s CPU      0.72s WALL (    6851 calls)

     General routines
     calbec       :      2.69s CPU      3.32s WALL (    9515 calls)
     fft          :      6.98s CPU      8.08s WALL (    3055 calls)
     ffts         :      0.97s CPU      1.59s WALL (     366 calls)
     fftw         :     21.39s CPU     23.10s WALL (  281584 calls)
     interpolate  :      0.96s CPU      1.28s WALL (     190 calls)

     Parallel routines

     PWSCF        :   1m14.34s CPU   1m27.22s WALL


   This run was terminated on:   7:32:24   6Aug2025            

=------------------------------------------------------------------------------=
   JOB DONE.
=------------------------------------------------------------------------------=
