
     Program PWSCF v.7.2 starts on  6Aug2025 at  7:30:13 

     This program is part of the open-source Quantum ESPRESSO suite
     for quantum simulation of materials; please cite
         "P. Giannozzi et al., J. Phys.:Condens. Matter 21 395502 (2009);
         "P. Giannozzi et al., J. Phys.:Condens. Matter 29 465901 (2017);
         "P. Giannozzi et al., J. Chem. Phys. 152 154105 (2020);
          URL http://www.quantum-espresso.org", 
     in publications or presentations arising from this work. More details at
     http://www.quantum-espresso.org/quote

     Parallel version (MPI & OpenMP), running on     256 processor cores
     Number of MPI processes:               256
     Threads/MPI process:                     1

     MPI processes distributed on     4 nodes
     241588 MiB available memory on the printing compute node when the environment starts

     Reading input from LiAg_mp-2426_111_bridge_2.in

     Current dimensions of program PWSCF are:
     Max number of different atomic species (ntypx) = 10
     Max number of k-points (npk) =  40000
     Max angular momentum in pseudopotentials (lmaxx) =  4
     Message from routine iosys:
     restart disabled: needed files not found

     K-points division:     npool     =       4
     R & G space division:  proc/nbgrp/npool/nimage =      64
     Subspace diagonalization in iterative solution of the eigenvalue problem:
     a serial algorithm will be used


     Parallelization info
     --------------------
     sticks:   dense  smooth     PW     G-vecs:    dense   smooth      PW
     Min          37      16      4                 8235     2392     362
     Max          38      17      5                 8258     2433     403
     Sum        2407    1057    313               527639   153843   24959

     Using Slab Decomposition



     bravais-lattice index     =            0
     lattice parameter (alat)  =       8.3454  a.u.
     unit-cell volume          =    2793.3427 (a.u.)^3
     number of atoms/cell      =            7
     number of atomic types    =            2
     number of electrons       =        45.00
     number of Kohn-Sham states=           28
     kinetic-energy cutoff     =      55.0000  Ry
     charge density cutoff     =     500.0000  Ry
     scf convergence threshold =      1.0E-06
     mixing beta               =       0.3000
     number of iterations used =            8  plain     mixing
     energy convergence thresh.=      1.0E-04
     force convergence thresh. =      1.0E-03
     Exchange-correlation= PBE
                           (   1   4   3   4   0   0   0)
     nstep                     =          500


     celldm(1)=   8.345450  celldm(2)=   0.000000  celldm(3)=   0.000000
     celldm(4)=   0.000000  celldm(5)=   0.000000  celldm(6)=   0.000000

     crystal axes: (cart. coord. in units of alat)
               a(1) = (   1.000000   0.000000   0.000000 )  
               a(2) = (   0.500000   0.866025   0.000000 )  
               a(3) = (   0.000000   0.000000   5.549379 )  

     reciprocal axes: (cart. coord. in units 2 pi/alat)
               b(1) = (  1.000000 -0.577350  0.000000 )  
               b(2) = (  0.000000  1.154701  0.000000 )  
               b(3) = ( -0.000000 -0.000000  0.180200 )  


     PseudoPot. # 1 for Ag read from file:
     /home/ecastro/trabajo_final/pseudos/Ag.pbe-n-rrkjus_psl.1.0.0.UPF
     MD5 check sum: 81cdf87bacf708300839c66ee23ce017
     Pseudo is Ultrasoft + core correction, Zval = 11.0
     Generated using &quot;atomic&quot; code by A. Dal Corso  v.6.2.2
     Using radial grid of 1237 points,  6 beta functions with: 
                l(1) =   0
                l(2) =   0
                l(3) =   1
                l(4) =   1
                l(5) =   2
                l(6) =   2
     Q(r) pseudized with 0 coefficients 


     PseudoPot. # 2 for Li read from file:
     /home/ecastro/trabajo_final/pseudos/Li.pbe-s-rrkjus_psl.1.0.0.UPF
     MD5 check sum: 9f98d2529904d60b716d33989e9bc179
     Pseudo is Ultrasoft, Zval =  3.0
     Generated using &quot;atomic&quot; code by A. Dal Corso  v.6.3MaX
     Using radial grid of 1017 points,  4 beta functions with: 
                l(1) =   0
                l(2) =   0
                l(3) =   1
                l(4) =   1
     Q(r) pseudized with 0 coefficients 


     atomic species   valence    mass     pseudopotential
        Ag            11.00   107.86820     Ag( 1.00)
        Li             3.00     6.94100     Li( 1.00)

     No symmetry found



   Cartesian axes

     site n.     atom                  positions (alat units)
         1           Ag  tau(   1) = (   0.2500048   0.1443394   3.2487074  )
         2           Ag  tau(   2) = (   0.7500000   0.4330127   2.8767515  )
         3           Ag  tau(   3) = (   1.2500000   0.7216878   2.4685032  )
         4           Li  tau(   4) = (   1.2500020   0.7216887   3.0939233  )
         5           Li  tau(   5) = (   0.2500000   0.1443376   2.6726274  )
         6           Li  tau(   6) = (   0.7500000   0.4330127   2.2643791  )
         7           Li  tau(   7) = (   0.5000034   0.0000014   3.7015832  )

     --------------------------------------------
     DFT-D3 Dispersion Correction (no 3-body):
     --------------------------------------------
       Reference C6 values for interpolation: 

         atom   Coordination number   C6
         Li         0.000          2326.89
         Li         0.987           170.64
         Ag         0.000           853.49
         Ag         0.968           537.23

       Values used:

         atom   Coordination number  R0_AB[au]  C6      C8
         Ag         6.655            3.147    537.23  47741.54
         Ag         9.489            3.147    537.23  47741.54
         Ag         7.852            3.147    537.23  47741.54
         Li         9.118            3.303    170.64  12899.87
         Li        10.116            3.303    170.64  12899.87
         Li         5.641            3.303    170.64  12899.87
         Li         2.009            3.303    170.64  12900.25

         Molecular C6 ( Ry / a.u.^6 ) =     14508.79


     number of k points=    34  Methfessel-Paxton smearing, width (Ry)=  0.0300
                       cart. coord. in units 2pi/alat
        k(    1) = (   0.0000000   0.0000000   0.0000000), wk =   0.0312500
        k(    2) = (   0.0000000   0.1443376   0.0000000), wk =   0.0625000
        k(    3) = (   0.0000000   0.2886751   0.0000000), wk =   0.0625000
        k(    4) = (   0.0000000   0.4330127   0.0000000), wk =   0.0625000
        k(    5) = (   0.0000000  -0.5773503   0.0000000), wk =   0.0312500
        k(    6) = (   0.1250000  -0.0721688   0.0000000), wk =   0.0625000
        k(    7) = (   0.1250000   0.0721688   0.0000000), wk =   0.0625000
        k(    8) = (   0.1250000   0.2165064   0.0000000), wk =   0.0625000
        k(    9) = (   0.1250000   0.3608439   0.0000000), wk =   0.0625000
        k(   10) = (   0.1250000  -0.6495191   0.0000000), wk =   0.0625000
        k(   11) = (   0.1250000  -0.5051815   0.0000000), wk =   0.0625000
        k(   12) = (   0.1250000  -0.3608439   0.0000000), wk =   0.0625000
        k(   13) = (   0.1250000  -0.2165064   0.0000000), wk =   0.0625000
        k(   14) = (   0.2500000  -0.1443376   0.0000000), wk =   0.0625000
        k(   15) = (   0.2500000   0.0000000   0.0000000), wk =   0.0625000
        k(   16) = (   0.2500000   0.1443376   0.0000000), wk =   0.0625000
        k(   17) = (   0.2500000   0.2886751   0.0000000), wk =   0.0625000
        k(   18) = (   0.2500000  -0.7216878   0.0000000), wk =   0.0625000
        k(   19) = (   0.2500000  -0.5773503   0.0000000), wk =   0.0625000
        k(   20) = (   0.2500000  -0.4330127   0.0000000), wk =   0.0625000
        k(   21) = (   0.2500000  -0.2886751   0.0000000), wk =   0.0625000
        k(   22) = (   0.3750000  -0.2165064   0.0000000), wk =   0.0625000
        k(   23) = (   0.3750000  -0.0721688   0.0000000), wk =   0.0625000
        k(   24) = (   0.3750000   0.0721688   0.0000000), wk =   0.0625000
        k(   25) = (   0.3750000   0.2165064   0.0000000), wk =   0.0625000
        k(   26) = (   0.3750000  -0.7938566   0.0000000), wk =   0.0625000
        k(   27) = (   0.3750000  -0.6495191   0.0000000), wk =   0.0625000
        k(   28) = (   0.3750000  -0.5051815   0.0000000), wk =   0.0625000
        k(   29) = (   0.3750000  -0.3608439   0.0000000), wk =   0.0625000
        k(   30) = (  -0.5000000   0.2886751   0.0000000), wk =   0.0312500
        k(   31) = (  -0.5000000   0.4330127   0.0000000), wk =   0.0625000
        k(   32) = (  -0.5000000   0.5773503   0.0000000), wk =   0.0625000
        k(   33) = (  -0.5000000   0.7216878   0.0000000), wk =   0.0625000
        k(   34) = (  -0.5000000  -0.2886751   0.0000000), wk =   0.0312500

     Dense  grid:   527639 G-vectors     FFT dimensions: (  60,  60, 360)

     Smooth grid:   153843 G-vectors     FFT dimensions: (  40,  40, 225)

     Estimated max dynamical RAM per process >      16.75 MB

     Estimated total dynamical RAM >       3.81 GB
     Cannot read rho : file not found

     Initial potential from superposition of free atoms

     starting charge      44.9804, renormalised to      45.0000

     negative rho (up, down):  4.960E-05 0.000E+00
     Message from routine qexsd_readschema :
     xml data file ./LiAg_mp-2426_111_bridge_2/LiAg_mp-2426_111_bridge_2.save/data-fi
     Cannot read wfcs: file not found
     Starting wfcs are   47 randomized atomic wfcs

     total cpu time spent up to now is        6.7 secs

     per-process dynamical memory:   173.7 Mb

     Self-consistent Calculation

     iteration #  1     ecut=    55.00 Ry     beta= 0.30
     Davidson diagonalization with overlap
     c_bands:  2 eigenvalues not converged
     ethr =  1.00E-05,  avg # of iterations = 16.4

     negative rho (up, down):  4.014E-05 0.000E+00

     total cpu time spent up to now is        7.8 secs

     total energy              =    -312.09378194 Ry
     estimated scf accuracy    <       0.69408616 Ry

     iteration #  2     ecut=    55.00 Ry     beta= 0.30
     Davidson diagonalization with overlap
     ethr =  1.54E-03,  avg # of iterations =  5.5

     negative rho (up, down):  1.136E-04 0.000E+00

     total cpu time spent up to now is        8.1 secs

     total energy              =    -311.98724801 Ry
     estimated scf accuracy    <       2.55893415 Ry

     iteration #  3     ecut=    55.00 Ry     beta= 0.30
     Davidson diagonalization with overlap
     ethr =  1.54E-03,  avg # of iterations =  3.4

     negative rho (up, down):  1.247E-04 0.000E+00

     total cpu time spent up to now is        8.5 secs

     total energy              =    -312.24069310 Ry
     estimated scf accuracy    <       0.94565278 Ry

     iteration #  4     ecut=    55.00 Ry     beta= 0.30
     Davidson diagonalization with overlap
     ethr =  1.54E-03,  avg # of iterations =  1.0

     negative rho (up, down):  9.653E-05 0.000E+00

     total cpu time spent up to now is        8.8 secs

     total energy              =    -312.27892329 Ry
     estimated scf accuracy    <       0.05675273 Ry

     iteration #  5     ecut=    55.00 Ry     beta= 0.30
     Davidson diagonalization with overlap
     ethr =  1.26E-04,  avg # of iterations =  3.5

     negative rho (up, down):  4.029E-05 0.000E+00

     total cpu time spent up to now is        9.1 secs

     total energy              =    -312.27586601 Ry
     estimated scf accuracy    <       0.01739228 Ry

     iteration #  6     ecut=    55.00 Ry     beta= 0.30
     Davidson diagonalization with overlap
     ethr =  3.86E-05,  avg # of iterations =  7.4

     negative rho (up, down):  3.290E-05 0.000E+00

     total cpu time spent up to now is        9.5 secs

     total energy              =    -312.27810596 Ry
     estimated scf accuracy    <       0.00448435 Ry

     iteration #  7     ecut=    55.00 Ry     beta= 0.30
     Davidson diagonalization with overlap
     ethr =  9.97E-06,  avg # of iterations =  2.9

     negative rho (up, down):  5.006E-05 0.000E+00

     total cpu time spent up to now is        9.8 secs

     total energy              =    -312.27872940 Ry
     estimated scf accuracy    <       0.00123623 Ry

     iteration #  8     ecut=    55.00 Ry     beta= 0.30
     Davidson diagonalization with overlap
     ethr =  2.75E-06,  avg # of iterations =  3.1

     negative rho (up, down):  5.788E-05 0.000E+00

     total cpu time spent up to now is       10.1 secs

     total energy              =    -312.27888979 Ry
     estimated scf accuracy    <       0.00007595 Ry

     iteration #  9     ecut=    55.00 Ry     beta= 0.30
     Davidson diagonalization with overlap
     ethr =  1.69E-07,  avg # of iterations =  3.8

     negative rho (up, down):  4.680E-05 0.000E+00

     total cpu time spent up to now is       10.4 secs

     total energy              =    -312.27890573 Ry
     estimated scf accuracy    <       0.00001005 Ry

     iteration # 10     ecut=    55.00 Ry     beta= 0.30
     Davidson diagonalization with overlap
     ethr =  2.23E-08,  avg # of iterations =  5.0

     negative rho (up, down):  3.346E-05 0.000E+00

     total cpu time spent up to now is       10.7 secs

     total energy              =    -312.27890747 Ry
     estimated scf accuracy    <       0.00000352 Ry

     iteration # 11     ecut=    55.00 Ry     beta= 0.30
     Davidson diagonalization with overlap
     ethr =  7.82E-09,  avg # of iterations =  2.2

     negative rho (up, down):  1.471E-05 0.000E+00

     total cpu time spent up to now is       11.0 secs

     End of self-consistent calculation

          k = 0.0000 0.0000 0.0000 ( 19117 PWs)   bands (ev):

   -48.0975 -46.9656 -46.1720 -46.0170  -5.7171  -5.3706  -5.3589  -5.2305
    -5.2103  -5.1895  -4.8108  -4.7248  -4.7120  -4.4994  -4.4664  -4.1062
    -4.1048  -4.0539  -3.7785  -3.7090  -3.3883  -1.2883   0.0580   1.5508
     2.5232   2.7185   3.6984   4.1018

          k = 0.0000 0.1443 0.0000 ( 19191 PWs)   bands (ev):

   -48.0976 -46.9658 -46.1721 -46.0171  -5.6242  -5.3429  -5.3307  -5.2189
    -5.1812  -5.1316  -4.7819  -4.7120  -4.6845  -4.5026  -4.4651  -4.1413
    -4.1032  -4.0754  -3.8651  -3.7560  -3.1979  -1.1360   0.2017   1.6769
     2.5425   2.7063   2.9042   3.0901

          k = 0.0000 0.2887 0.0000 ( 19227 PWs)   bands (ev):

   -48.0976 -46.9657 -46.1721 -46.0171  -5.4730  -5.2743  -5.2332  -5.1778
    -5.0508  -4.9908  -4.7543  -4.6536  -4.5995  -4.5016  -4.3905  -4.2200
    -4.1793  -4.1013  -4.0504  -3.7823  -2.7174  -0.7019   0.3544   0.9088
     1.9341   2.1146   2.3860   3.1339

          k = 0.0000 0.4330 0.0000 ( 19265 PWs)   bands (ev):

   -48.0976 -46.9657 -46.1720 -46.0171  -5.4206  -5.2222  -5.1647  -5.0189
    -4.8918  -4.8313  -4.7403  -4.6152  -4.5304  -4.4786  -4.4469  -4.3256
    -4.3013  -4.0656  -3.8144  -3.7273  -2.0376  -1.1071   0.0109   0.6841
     1.2010   1.4625   2.3816   3.0114

          k = 0.0000-0.5774 0.0000 ( 19296 PWs)   bands (ev):

   -48.0977 -46.9658 -46.1720 -46.0171  -5.4112  -5.1990  -5.1396  -4.9290
    -4.8017  -4.7687  -4.7050  -4.5873  -4.5699  -4.5260  -4.4654  -4.4169
    -4.3778  -4.0576  -3.8058  -2.8698  -2.5819  -0.8782  -0.5822   0.7283
     0.9904   1.4219   2.2497   2.8635

          k = 0.1250-0.0722 0.0000 ( 19191 PWs)   bands (ev):

   -48.0976 -46.9658 -46.1721 -46.0171  -5.6143  -5.3606  -5.3138  -5.2198
    -5.1775  -5.1437  -4.7719  -4.7188  -4.6799  -4.5003  -4.4770  -4.1424
    -4.1336  -4.0432  -3.8848  -3.7173  -3.2174  -1.1418   0.2010   1.6893
     2.5518   2.6843   2.8908   3.0797

          k = 0.1250 0.0722 0.0000 ( 19191 PWs)   bands (ev):

   -48.0976 -46.9658 -46.1721 -46.0171  -5.6242  -5.3429  -5.3307  -5.2189
    -5.1812  -5.1316  -4.7819  -4.7120  -4.6845  -4.5026  -4.4651  -4.1413
    -4.1032  -4.0754  -3.8651  -3.7560  -3.1979  -1.1360   0.2017   1.6769
     2.5425   2.7063   2.9042   3.0901

          k = 0.1250 0.2165 0.0000 ( 19214 PWs)   bands (ev):

   -48.0976 -46.9657 -46.1721 -46.0171  -5.4990  -5.3159  -5.2474  -5.1717
    -5.1512  -4.9982  -4.7437  -4.7034  -4.6257  -4.5021  -4.4108  -4.1969
    -4.1374  -4.0876  -4.0196  -3.8022  -2.8578  -0.8361   0.4404   1.4328
     1.6842   2.0734   2.9709   3.1450

          k = 0.1250 0.3608 0.0000 ( 19244 PWs)   bands (ev):

   -48.0976 -46.9657 -46.1720 -46.0171  -5.3925  -5.2504  -5.1554  -5.1100
    -5.0104  -4.8150  -4.7105  -4.6647  -4.5732  -4.4640  -4.4039  -4.2726
    -4.1951  -4.1170  -4.0176  -3.7962  -2.2517  -0.4782  -0.1111   0.6965
     1.2413   1.6955   2.4368   2.9782

          k = 0.1250-0.6495 0.0000 ( 19267 PWs)   bands (ev):

   -48.0976 -46.9657 -46.1720 -46.0171  -5.3601  -5.1931  -5.1025  -4.9802
    -4.9103  -4.7270  -4.6713  -4.6191  -4.5619  -4.5083  -4.4663  -4.4062
    -4.2987  -4.0883  -3.9334  -3.1514  -2.0503  -1.1653  -0.1289   0.5331
     0.7005   1.6832   2.2179   2.5278

          k = 0.1250-0.5052 0.0000 ( 19267 PWs)   bands (ev):

   -48.0976 -46.9657 -46.1720 -46.0171  -5.3573  -5.1748  -5.1215  -4.9702
    -4.8652  -4.7881  -4.7026  -4.6428  -4.5413  -4.5044  -4.4512  -4.3980
    -4.2800  -4.0838  -3.9318  -3.1650  -2.0482  -1.1752  -0.1343   0.5452
     0.6654   1.6708   2.1752   2.6921

          k = 0.1250-0.3608 0.0000 ( 19244 PWs)   bands (ev):

   -48.0976 -46.9657 -46.1720 -46.0171  -5.3781  -5.2176  -5.1814  -5.1065
    -4.9989  -4.8720  -4.7110  -4.6220  -4.5742  -4.5167  -4.4029  -4.2624
    -4.1531  -4.1111  -4.0448  -3.7765  -2.2852  -0.4580  -0.1365   0.6961
     1.1510   1.7146   2.4891   2.9787

          k = 0.1250-0.2165 0.0000 ( 19214 PWs)   bands (ev):

   -48.0976 -46.9657 -46.1721 -46.0171  -5.4715  -5.3158  -5.2547  -5.1808
    -5.1403  -5.0250  -4.7325  -4.6791  -4.6265  -4.5173  -4.4385  -4.2283
    -4.1393  -4.0590  -4.0156  -3.7606  -2.8923  -0.8519   0.4551   1.4377
     1.6399   2.0631   2.9624   3.1350

          k = 0.2500-0.1443 0.0000 ( 19227 PWs)   bands (ev):

   -48.0976 -46.9657 -46.1721 -46.0171  -5.4270  -5.2888  -5.2186  -5.1973
    -5.0634  -5.0091  -4.7269  -4.6315  -4.6067  -4.4964  -4.4540  -4.2227
    -4.2134  -4.0960  -4.0110  -3.7381  -2.7573  -0.7292   0.3838   0.8583
     1.9757   2.0798   2.3715   3.1547

          k = 0.2500 0.0000 0.0000 ( 19214 PWs)   bands (ev):

   -48.0976 -46.9657 -46.1721 -46.0171  -5.4715  -5.3158  -5.2547  -5.1808
    -5.1403  -5.0250  -4.7325  -4.6791  -4.6265  -4.5173  -4.4385  -4.2283
    -4.1393  -4.0590  -4.0156  -3.7606  -2.8923  -0.8519   0.4551   1.4377
     1.6399   2.0631   2.9624   3.1351

          k = 0.2500 0.1443 0.0000 ( 19227 PWs)   bands (ev):

   -48.0976 -46.9657 -46.1721 -46.0171  -5.4730  -5.2743  -5.2332  -5.1778
    -5.0508  -4.9908  -4.7543  -4.6536  -4.5995  -4.5016  -4.3905  -4.2200
    -4.1793  -4.1013  -4.0504  -3.7823  -2.7174  -0.7019   0.3544   0.9088
     1.9341   2.1145   2.3859   3.1338

          k = 0.2500 0.2887 0.0000 ( 19244 PWs)   bands (ev):

   -48.0976 -46.9657 -46.1720 -46.0171  -5.3925  -5.2504  -5.1554  -5.1100
    -5.0104  -4.8150  -4.7105  -4.6647  -4.5732  -4.4640  -4.4039  -4.2726
    -4.1951  -4.1170  -4.0176  -3.7962  -2.2517  -0.4782  -0.1111   0.6965
     1.2413   1.6955   2.4369   2.9785

          k = 0.2500-0.7217 0.0000 ( 19252 PWs)   bands (ev):

   -48.0976 -46.9657 -46.1719 -46.0170  -5.2773  -5.1775  -5.1204  -5.0115
    -4.9804  -4.6885  -4.6803  -4.6210  -4.5516  -4.5297  -4.4382  -4.3851
    -4.2117  -4.1369  -4.0788  -3.2652  -1.6530  -1.1616  -0.3807   0.5296
     1.1972   1.2971   1.9503   2.4864

          k = 0.2500-0.5774 0.0000 ( 19252 PWs)   bands (ev):

   -48.0975 -46.9656 -46.1719 -46.0170  -5.2256  -5.1274  -5.0438  -4.9949
    -4.9421  -4.8395  -4.6296  -4.6070  -4.5347  -4.5037  -4.4213  -4.3790
    -4.2550  -4.1866  -4.1216  -2.3602  -2.2850  -1.3724  -0.1240   0.1645
     1.0091   1.3515   1.6957   2.6627

          k = 0.2500-0.4330 0.0000 ( 19252 PWs)   bands (ev):

   -48.0976 -46.9657 -46.1719 -46.0170  -5.2313  -5.1608  -5.1288  -5.0236
    -4.9844  -4.7668  -4.6885  -4.6154  -4.5550  -4.5259  -4.4589  -4.3340
    -4.1972  -4.1159  -4.0687  -3.2844  -1.7152  -1.0981  -0.4234   0.4504
     1.1176   1.2854   2.0723   2.6066

          k = 0.2500-0.2887 0.0000 ( 19244 PWs)   bands (ev):

   -48.0976 -46.9657 -46.1720 -46.0171  -5.3347  -5.2327  -5.1818  -5.1117
    -5.0283  -4.8661  -4.6883  -4.6119  -4.5767  -4.5273  -4.4182  -4.2809
    -4.1944  -4.1011  -3.9960  -3.7627  -2.3099  -0.4919  -0.0988   0.6610
     1.0708   1.8431   2.4517   2.9522

          k = 0.3750-0.2165 0.0000 ( 19265 PWs)   bands (ev):

   -48.0976 -46.9657 -46.1720 -46.0171  -5.3692  -5.1999  -5.1445  -5.0881
    -4.8884  -4.8698  -4.7199  -4.5625  -4.5449  -4.4965  -4.4841  -4.3320
    -4.3256  -4.0336  -3.7550  -3.7431  -2.1109  -1.0949  -0.0135   0.5144
     1.2328   1.5804   2.3974   3.2262

          k = 0.3750-0.0722 0.0000 ( 19244 PWs)   bands (ev):

   -48.0976 -46.9657 -46.1720 -46.0171  -5.3347  -5.2327  -5.1818  -5.1118
    -5.0283  -4.8661  -4.6883  -4.6119  -4.5767  -4.5273  -4.4182  -4.2809
    -4.1944  -4.1011  -3.9960  -3.7627  -2.3099  -0.4919  -0.0988   0.6610
     1.0708   1.8430   2.4518   2.9522

          k = 0.3750 0.0722 0.0000 ( 19244 PWs)   bands (ev):

   -48.0976 -46.9657 -46.1720 -46.0171  -5.3781  -5.2176  -5.1814  -5.1065
    -4.9989  -4.8720  -4.7110  -4.6220  -4.5742  -4.5167  -4.4029  -4.2624
    -4.1531  -4.1111  -4.0448  -3.7766  -2.2852  -0.4580  -0.1365   0.6961
     1.1510   1.7147   2.4890   2.9785

          k = 0.3750 0.2165 0.0000 ( 19265 PWs)   bands (ev):

   -48.0976 -46.9657 -46.1720 -46.0171  -5.4206  -5.2222  -5.1646  -5.0189
    -4.8918  -4.8313  -4.7403  -4.6152  -4.5304  -4.4786  -4.4469  -4.3256
    -4.3013  -4.0656  -3.8144  -3.7273  -2.0376  -1.1071   0.0109   0.6841
     1.2010   1.4625   2.3816   3.0114

          k = 0.3750-0.7939 0.0000 ( 19267 PWs)   bands (ev):

   -48.0976 -46.9657 -46.1720 -46.0171  -5.3601  -5.1931  -5.1025  -4.9802
    -4.9103  -4.7270  -4.6713  -4.6191  -4.5619  -4.5083  -4.4663  -4.4062
    -4.2987  -4.0883  -3.9334  -3.1514  -2.0503  -1.1653  -0.1289   0.5331
     0.7005   1.6832   2.2179   2.5278

          k = 0.3750-0.6495 0.0000 ( 19252 PWs)   bands (ev):

   -48.0975 -46.9656 -46.1719 -46.0170  -5.2256  -5.1274  -5.0438  -4.9949
    -4.9421  -4.8395  -4.6296  -4.6070  -4.5347  -4.5037  -4.4213  -4.3790
    -4.2550  -4.1866  -4.1216  -2.3602  -2.2850  -1.3724  -0.1240   0.1645
     1.0091   1.3515   1.6957   2.6627

          k = 0.3750-0.5052 0.0000 ( 19252 PWs)   bands (ev):

   -48.0975 -46.9656 -46.1719 -46.0170  -5.1548  -5.1321  -5.0704  -5.0109
    -4.9549  -4.8627  -4.6408  -4.5630  -4.5484  -4.5185  -4.4398  -4.3639
    -4.2699  -4.1739  -4.0878  -2.3806  -2.3000  -1.3505  -0.1453   0.1143
     0.9814   1.1905   2.0095   2.4842

          k = 0.3750-0.3608 0.0000 ( 19267 PWs)   bands (ev):

   -48.0976 -46.9657 -46.1720 -46.0171  -5.3041  -5.1511  -5.1205  -5.0283
    -4.9078  -4.7655  -4.7017  -4.5998  -4.5493  -4.5236  -4.4748  -4.4022
    -4.3064  -4.0512  -3.8912  -3.1698  -2.1082  -1.1594  -0.1267   0.3934
     0.5953   1.8634   2.2666   2.6140

          k =-0.5000 0.2887 0.0000 ( 19296 PWs)   bands (ev):

   -48.0977 -46.9658 -46.1720 -46.0171  -5.3600  -5.1753  -5.1168  -5.0020
    -4.8321  -4.7460  -4.7198  -4.5982  -4.5564  -4.5310  -4.4748  -4.4149
    -4.4005  -4.0195  -3.7576  -2.8392  -2.6801  -0.9056  -0.5981   0.4810
     0.9663   1.6887   2.4221   2.8842

          k =-0.5000 0.4330 0.0000 ( 19267 PWs)   bands (ev):

   -48.0976 -46.9657 -46.1720 -46.0171  -5.3041  -5.1511  -5.1205  -5.0283
    -4.9078  -4.7655  -4.7017  -4.5998  -4.5493  -4.5236  -4.4748  -4.4022
    -4.3064  -4.0512  -3.8912  -3.1698  -2.1082  -1.1594  -0.1267   0.3934
     0.5953   1.8634   2.2666   2.6143

          k =-0.5000 0.5774 0.0000 ( 19252 PWs)   bands (ev):

   -48.0976 -46.9657 -46.1719 -46.0170  -5.2313  -5.1608  -5.1288  -5.0236
    -4.9844  -4.7668  -4.6885  -4.6154  -4.5550  -4.5259  -4.4589  -4.3340
    -4.1972  -4.1159  -4.0687  -3.2844  -1.7151  -1.0982  -0.4234   0.4504
     1.1177   1.2855   2.0723   2.6065

          k =-0.5000 0.7217 0.0000 ( 19267 PWs)   bands (ev):

   -48.0976 -46.9657 -46.1720 -46.0171  -5.3573  -5.1747  -5.1215  -4.9702
    -4.8652  -4.7881  -4.7026  -4.6428  -4.5413  -4.5044  -4.4512  -4.3980
    -4.2800  -4.0838  -3.9318  -3.1650  -2.0482  -1.1752  -0.1343   0.5452
     0.6653   1.6708   2.1752   2.6921

          k =-0.5000-0.2887 0.0000 ( 19296 PWs)   bands (ev):

   -48.0977 -46.9658 -46.1720 -46.0171  -5.4112  -5.1990  -5.1396  -4.9290
    -4.8017  -4.7687  -4.7050  -4.5873  -4.5699  -4.5260  -4.4654  -4.4169
    -4.3778  -4.0576  -3.8059  -2.8698  -2.5819  -0.8782  -0.5822   0.7283
     0.9904   1.4219   2.2497   2.8635

     the Fermi energy is    -0.0458 ev

!    total energy              =    -312.27890810 Ry
     estimated scf accuracy    <       0.00000040 Ry
     smearing contrib. (-TS)   =      -0.00064026 Ry
     internal energy E=F+TS    =    -312.27826784 Ry

     The total energy is F=E-TS. E is the sum of the following terms:
     one-electron contribution =   -1953.40098732 Ry
     hartree contribution      =     992.92441530 Ry
     xc contribution           =     -81.33581904 Ry
     ewald contribution        =     729.62066479 Ry
     DFT-D3 Dispersion         =      -0.08654158 Ry

     convergence has been achieved in  11 iterations

     negative rho (up, down):  1.471E-05 0.000E+00

     Forces acting on atoms (cartesian axes, Ry/au):

     atom    1 type  1   force =    -0.01796694    0.01037057   -0.00818378
     atom    2 type  1   force =    -0.00064913    0.00037596    0.00731614
     atom    3 type  1   force =     0.00000987   -0.00000664    0.01324173
     atom    4 type  2   force =     0.00201865   -0.00116463    0.00106245
     atom    5 type  2   force =     0.00102711   -0.00059130   -0.01697632
     atom    6 type  2   force =     0.00017216   -0.00009925   -0.00581114
     atom    7 type  2   force =     0.01538828   -0.00888471    0.00935091
     The non-local contrib.  to forces
     atom    1 type  1   force =    -0.00856115    0.00494430    0.05071526
     atom    2 type  1   force =    -0.00367670    0.00212778    0.01535934
     atom    3 type  1   force =    -0.00167711    0.00096640    0.00752013
     atom    4 type  2   force =     0.00431625   -0.00249240    0.01040215
     atom    5 type  2   force =     0.00035505   -0.00020428   -0.01440189
     atom    6 type  2   force =     0.00065764   -0.00037953   -0.06229937
     atom    7 type  2   force =     0.02066200   -0.01192939    0.06267755
     The ionic contribution  to forces
     atom    1 type  1   force =    -0.76665737    0.44255930   42.97936939
     atom    2 type  1   force =     0.00007641    0.00003072    1.41833503
     atom    3 type  1   force =     0.00268688   -0.00155065  -45.71795907
     atom    4 type  2   force =     0.06840489   -0.03948381    7.81204297
     atom    5 type  2   force =    -0.00323211    0.00185560   -7.31138369
     atom    6 type  2   force =     0.00000038    0.00000015  -17.30432900
     atom    7 type  2   force =     0.69872092   -0.40341131   18.12392437
     The local contribution  to forces
     atom    1 type  1   force =     0.75371610   -0.43509431  -43.03277512
     atom    2 type  1   force =     0.00292159   -0.00175120   -1.42499825
     atom    3 type  1   force =    -0.00097208    0.00055345   45.71954614
     atom    4 type  2   force =    -0.07087938    0.04091413   -7.82054605
     atom    5 type  2   force =     0.00389200   -0.00223970    7.30776805
     atom    6 type  2   force =    -0.00049142    0.00028378   17.35913908
     atom    7 type  2   force =    -0.70358870    0.40622126  -18.17442588
     The core correction contribution to forces
     atom    1 type  1   force =     0.00338058   -0.00195154   -0.00164927
     atom    2 type  1   force =     0.00004651   -0.00002666   -0.00258603
     atom    3 type  1   force =    -0.00000855    0.00000483    0.00224596
     atom    4 type  2   force =     0.00000000    0.00000000    0.00000000
     atom    5 type  2   force =     0.00000000    0.00000000    0.00000000
     atom    6 type  2   force =     0.00000000    0.00000000    0.00000000
     atom    7 type  2   force =     0.00000000    0.00000000    0.00000000
     The Hubbard contrib.    to forces
     atom    1 type  1   force =     0.00000000    0.00000000    0.00000000
     atom    2 type  1   force =     0.00000000    0.00000000    0.00000000
     atom    3 type  1   force =     0.00000000    0.00000000    0.00000000
     atom    4 type  2   force =     0.00000000    0.00000000    0.00000000
     atom    5 type  2   force =     0.00000000    0.00000000    0.00000000
     atom    6 type  2   force =     0.00000000    0.00000000    0.00000000
     atom    7 type  2   force =     0.00000000    0.00000000    0.00000000
     The SCF correction term to forces
     atom    1 type  1   force =    -0.00003267    0.00002079   -0.00151294
     atom    2 type  1   force =    -0.00002390   -0.00000081    0.00021054
     atom    3 type  1   force =    -0.00002253    0.00002098    0.00035025
     atom    4 type  2   force =     0.00000628   -0.00000429   -0.00033594
     atom    5 type  2   force =     0.00001365   -0.00000399    0.00012068
     atom    6 type  2   force =    -0.00000148    0.00000018    0.00003266
     atom    7 type  2   force =    -0.00008134    0.00004708   -0.00037937

     DFT-D3 dispersion contribution to forces:
     atom    1 type  1   force =     0.00018052   -0.00010413   -0.00230572
     atom    2 type  1   force =    -0.00000010   -0.00000004    0.00102090
     atom    3 type  1   force =    -0.00000380    0.00000219    0.00156370
     atom    4 type  2   force =     0.00016356   -0.00009442   -0.00047529
     atom    5 type  2   force =    -0.00000853    0.00000492    0.00094591
     atom    6 type  2   force =     0.00000000    0.00000000    0.00167088
     atom    7 type  2   force =    -0.00033166    0.00019148   -0.00242038

     Total force =     0.038209     Total SCF correction =     0.001655


     Computing stress (Cartesian axis) and pressure


     negative rho (up, down):  1.471E-05 0.000E+00
          total   stress  (Ry/bohr**3)                   (kbar)     P=       -7.24
  -0.00006319  -0.00000627   0.00001848           -9.30       -0.92        2.72
  -0.00000627  -0.00007043  -0.00001067           -0.92      -10.36       -1.57
   0.00001848  -0.00001067  -0.00001412            2.72       -1.57       -2.08


     BFGS Geometry Optimization
     Energy error            =      0.0E+00 Ry
     Gradient error          =      1.8E-02 Ry/Bohr

     number of scf cycles    =   1
     number of bfgs steps    =   0

     energy             new  =    -312.2789080970 Ry

     new trust radius        =       0.0223009850 bohr
     new conv_thr            =       0.0000010000 Ry


ATOMIC_POSITIONS (angstrom)
Ag            1.0945691282        0.6429227169       14.3426816171
Ag            3.3118227895        1.9124790517       12.7082439918
Ag            5.5202823818        3.1871299876       10.9084647068
Li            5.5213543990        3.1865210521       13.6640133462
Li            1.1045989569        0.6371137989       11.7939314882
Li            3.3122573996        1.9122275811        9.9969248783
Li            2.2162691929       -0.0046955897       16.3519605769



     Writing config-only to output data dir ./LiAg_mp-2426_111_bridge_2/LiAg_mp-2426_111_bridge_2.save/
     NEW-OLD atomic charge density approx. for the potential

     negative rho (up, down):  1.503E-05 0.000E+00

     total cpu time spent up to now is       12.1 secs

     per-process dynamical memory:   180.8 Mb

     Self-consistent Calculation

     iteration #  1     ecut=    55.00 Ry     beta= 0.30
     Davidson diagonalization with overlap
     ethr =  1.00E-06,  avg # of iterations =  6.0

     negative rho (up, down):  1.485E-05 0.000E+00

     total cpu time spent up to now is       12.7 secs

     total energy              =    -312.28027691 Ry
     estimated scf accuracy    <       0.00005174 Ry

     iteration #  2     ecut=    55.00 Ry     beta= 0.30
     Davidson diagonalization with overlap
     ethr =  1.15E-07,  avg # of iterations =  2.3

     negative rho (up, down):  1.635E-05 0.000E+00

     total cpu time spent up to now is       12.9 secs

     total energy              =    -312.28025854 Ry
     estimated scf accuracy    <       0.00073966 Ry

     iteration #  3     ecut=    55.00 Ry     beta= 0.30
     Davidson diagonalization with overlap
     ethr =  1.15E-07,  avg # of iterations =  1.9

     negative rho (up, down):  1.591E-05 0.000E+00

     total cpu time spent up to now is       13.2 secs

     total energy              =    -312.28029760 Ry
     estimated scf accuracy    <       0.00000499 Ry

     iteration #  4     ecut=    55.00 Ry     beta= 0.30
     Davidson diagonalization with overlap
     ethr =  1.11E-08,  avg # of iterations =  2.4

     negative rho (up, down):  1.468E-05 0.000E+00

     total cpu time spent up to now is       13.5 secs

     total energy              =    -312.28029838 Ry
     estimated scf accuracy    <       0.00000193 Ry

     iteration #  5     ecut=    55.00 Ry     beta= 0.30
     Davidson diagonalization with overlap
     ethr =  4.30E-09,  avg # of iterations =  2.4

     negative rho (up, down):  1.467E-05 0.000E+00

     total cpu time spent up to now is       13.7 secs

     End of self-consistent calculation

          k = 0.0000 0.0000 0.0000 ( 19117 PWs)   bands (ev):

   -48.1026 -46.9714 -46.1681 -46.0127  -5.7190  -5.3683  -5.3581  -5.2322
    -5.2095  -5.1854  -4.8046  -4.7237  -4.7109  -4.4934  -4.4610  -4.0966
    -4.0956  -4.0493  -3.7695  -3.7045  -3.3832  -1.2882   0.0581   1.5519
     2.5340   2.7328   3.7150   4.1109

          k = 0.0000 0.1443 0.0000 ( 19191 PWs)   bands (ev):

   -48.1027 -46.9716 -46.1682 -46.0128  -5.6259  -5.3413  -5.3292  -5.2187
    -5.1813  -5.1280  -4.7762  -4.7094  -4.6834  -4.4970  -4.4602  -4.1330
    -4.0949  -4.0696  -3.8579  -3.7492  -3.1934  -1.1360   0.2019   1.6778
     2.5479   2.7173   2.9162   3.0937

          k = 0.0000 0.2887 0.0000 ( 19227 PWs)   bands (ev):

   -48.1027 -46.9715 -46.1682 -46.0128  -5.4737  -5.2751  -5.2307  -5.1758
    -5.0496  -4.9872  -4.7494  -4.6487  -4.5966  -4.4975  -4.3872  -4.2142
    -4.1734  -4.0939  -4.0429  -3.7748  -2.7136  -0.7018   0.3579   0.9071
     1.9376   2.1166   2.3861   3.1421

          k = 0.0000 0.4330 0.0000 ( 19265 PWs)   bands (ev):

   -48.1027 -46.9715 -46.1681 -46.0129  -5.4204  -5.2239  -5.1626  -5.0152
    -4.8865  -4.8283  -4.7340  -4.6101  -4.5251  -4.4747  -4.4446  -4.3213
    -4.2971  -4.0580  -3.8064  -3.7250  -2.0351  -1.1039   0.0102   0.6878
     1.2030   1.4609   2.3831   3.0085

          k = 0.0000-0.5774 0.0000 ( 19296 PWs)   bands (ev):

   -48.1028 -46.9716 -46.1681 -46.0129  -5.4107  -5.2010  -5.1378  -4.9236
    -4.7968  -4.7606  -4.7017  -4.5798  -4.5627  -4.5242  -4.4646  -4.4151
    -4.3745  -4.0493  -3.7977  -2.8688  -2.5808  -0.8734  -0.5807   0.7287
     0.9922   1.4224   2.2500   2.8598

          k = 0.1250-0.0722 0.0000 ( 19191 PWs)   bands (ev):

   -48.1027 -46.9716 -46.1682 -46.0128  -5.6153  -5.3586  -5.3124  -5.2203
    -5.1767  -5.1409  -4.7662  -4.7166  -4.6786  -4.4944  -4.4719  -4.1342
    -4.1245  -4.0384  -3.8760  -3.7130  -3.2123  -1.1417   0.2014   1.6903
     2.5545   2.6945   2.9049   3.0841

          k = 0.1250 0.0722 0.0000 ( 19191 PWs)   bands (ev):

   -48.1027 -46.9716 -46.1682 -46.0128  -5.6259  -5.3413  -5.3292  -5.2187
    -5.1813  -5.1280  -4.7762  -4.7094  -4.6834  -4.4970  -4.4602  -4.1330
    -4.0949  -4.0696  -3.8579  -3.7492  -3.1934  -1.1360   0.2019   1.6778
     2.5479   2.7173   2.9162   3.0937

          k = 0.1250 0.2165 0.0000 ( 19214 PWs)   bands (ev):

   -48.1027 -46.9715 -46.1682 -46.0128  -5.5006  -5.3146  -5.2458  -5.1701
    -5.1514  -4.9947  -4.7385  -4.6982  -4.6241  -4.4976  -4.4067  -4.1928
    -4.1286  -4.0790  -4.0136  -3.7942  -2.8542  -0.8361   0.4419   1.4358
     1.6841   2.0762   2.9837   3.1502

          k = 0.1250 0.3608 0.0000 ( 19244 PWs)   bands (ev):

   -48.1027 -46.9715 -46.1681 -46.0128  -5.3932  -5.2502  -5.1530  -5.1089
    -5.0082  -4.8107  -4.7048  -4.6591  -4.5696  -4.4611  -4.3985  -4.2680
    -4.1871  -4.1125  -4.0118  -3.7900  -2.2492  -0.4748  -0.1098   0.6982
     1.2396   1.6975   2.4393   2.9785

          k = 0.1250-0.6495 0.0000 ( 19267 PWs)   bands (ev):

   -48.1027 -46.9715 -46.1681 -46.0128  -5.3598  -5.1940  -5.1009  -4.9768
    -4.9047  -4.7224  -4.6663  -4.6146  -4.5531  -4.5076  -4.4610  -4.4037
    -4.2947  -4.0812  -3.9258  -3.1505  -2.0491  -1.1612  -0.1259   0.5341
     0.7012   1.6832   2.2178   2.5286

          k = 0.1250-0.5052 0.0000 ( 19267 PWs)   bands (ev):

   -48.1027 -46.9715 -46.1681 -46.0128  -5.3567  -5.1749  -5.1203  -4.9652
    -4.8611  -4.7831  -4.6949  -4.6382  -4.5370  -4.5015  -4.4489  -4.3947
    -4.2761  -4.0763  -3.9245  -3.1629  -2.0474  -1.1702  -0.1341   0.5454
     0.6681   1.6720   2.1755   2.6922

          k = 0.1250-0.3608 0.0000 ( 19244 PWs)   bands (ev):

   -48.1027 -46.9715 -46.1681 -46.0128  -5.3775  -5.2154  -5.1809  -5.1036
    -4.9978  -4.8665  -4.7055  -4.6187  -4.5702  -4.5116  -4.4013  -4.2558
    -4.1482  -4.1053  -4.0390  -3.7709  -2.2808  -0.4561  -0.1362   0.6979
     1.1490   1.7182   2.4902   2.9794

          k = 0.1250-0.2165 0.0000 ( 19214 PWs)   bands (ev):

   -48.1027 -46.9715 -46.1682 -46.0128  -5.4713  -5.3134  -5.2540  -5.1798
    -5.1398  -5.0222  -4.7275  -4.6764  -4.6236  -4.5123  -4.4342  -4.2217
    -4.1305  -4.0541  -4.0078  -3.7554  -2.8875  -0.8517   0.4565   1.4379
     1.6420   2.0646   2.9702   3.1495

          k = 0.2500-0.1443 0.0000 ( 19227 PWs)   bands (ev):

   -48.1027 -46.9715 -46.1682 -46.0128  -5.4232  -5.2894  -5.2156  -5.1972
    -5.0626  -5.0068  -4.7239  -4.6253  -4.6050  -4.4924  -4.4490  -4.2164
    -4.2053  -4.0897  -4.0050  -3.7342  -2.7520  -0.7287   0.3867   0.8563
     1.9787   2.0807   2.3733   3.1671

          k = 0.2500 0.0000 0.0000 ( 19214 PWs)   bands (ev):

   -48.1027 -46.9715 -46.1682 -46.0128  -5.4712  -5.3134  -5.2540  -5.1798
    -5.1398  -5.0222  -4.7275  -4.6764  -4.6236  -4.5123  -4.4342  -4.2217
    -4.1305  -4.0541  -4.0078  -3.7554  -2.8875  -0.8517   0.4565   1.4379
     1.6420   2.0646   2.9702   3.1495

          k = 0.2500 0.1443 0.0000 ( 19227 PWs)   bands (ev):

   -48.1027 -46.9715 -46.1682 -46.0128  -5.4737  -5.2751  -5.2307  -5.1758
    -5.0496  -4.9872  -4.7494  -4.6487  -4.5966  -4.4975  -4.3872  -4.2142
    -4.1734  -4.0939  -4.0429  -3.7748  -2.7136  -0.7018   0.3579   0.9071
     1.9376   2.1166   2.3861   3.1424

          k = 0.2500 0.2887 0.0000 ( 19244 PWs)   bands (ev):

   -48.1027 -46.9715 -46.1681 -46.0128  -5.3932  -5.2502  -5.1530  -5.1089
    -5.0082  -4.8107  -4.7048  -4.6591  -4.5696  -4.4611  -4.3985  -4.2680
    -4.1871  -4.1125  -4.0118  -3.7900  -2.2492  -0.4748  -0.1098   0.6982
     1.2396   1.6975   2.4393   2.9785

          k = 0.2500-0.7217 0.0000 ( 19252 PWs)   bands (ev):

   -48.1027 -46.9715 -46.1680 -46.0128  -5.2785  -5.1752  -5.1182  -5.0090
    -4.9779  -4.6843  -4.6759  -4.6164  -4.5423  -4.5282  -4.4350  -4.3786
    -4.2067  -4.1305  -4.0721  -3.2643  -1.6530  -1.1544  -0.3803   0.5299
     1.1997   1.2991   1.9491   2.4874

          k = 0.2500-0.5774 0.0000 ( 19252 PWs)   bands (ev):

   -48.1027 -46.9715 -46.1680 -46.0128  -5.2253  -5.1255  -5.0407  -4.9922
    -4.9368  -4.8378  -4.6232  -4.6006  -4.5291  -4.5012  -4.4191  -4.3743
    -4.2517  -4.1815  -4.1136  -2.3572  -2.2854  -1.3690  -0.1235   0.1675
     1.0108   1.3537   1.6966   2.6609

          k = 0.2500-0.4330 0.0000 ( 19252 PWs)   bands (ev):

   -48.1027 -46.9715 -46.1680 -46.0128  -5.2296  -5.1568  -5.1256  -5.0231
    -4.9821  -4.7605  -4.6841  -4.6114  -4.5501  -4.5217  -4.4579  -4.3288
    -4.1913  -4.1099  -4.0647  -3.2816  -1.7094  -1.0981  -0.4226   0.4489
     1.1198   1.2894   2.0715   2.6104

          k = 0.2500-0.2887 0.0000 ( 19244 PWs)   bands (ev):

   -48.1027 -46.9715 -46.1681 -46.0128  -5.3297  -5.2325  -5.1789  -5.1105
    -5.0283  -4.8612  -4.6855  -4.6080  -4.5736  -4.5208  -4.4154  -4.2751
    -4.1857  -4.0986  -3.9912  -3.7583  -2.3044  -0.4885  -0.1019   0.6645
     1.0697   1.8439   2.4552   2.9519

          k = 0.3750-0.2165 0.0000 ( 19265 PWs)   bands (ev):

   -48.1027 -46.9715 -46.1681 -46.0129  -5.3636  -5.1989  -5.1399  -5.0890
    -4.8832  -4.8680  -4.7181  -4.5610  -4.5360  -4.4941  -4.4797  -4.3253
    -4.3218  -4.0290  -3.7511  -3.7398  -2.1037  -1.0944  -0.0160   0.5181
     1.2347   1.5788   2.4007   3.2286

          k = 0.3750-0.0722 0.0000 ( 19244 PWs)   bands (ev):

   -48.1027 -46.9715 -46.1681 -46.0128  -5.3297  -5.2325  -5.1789  -5.1105
    -5.0283  -4.8612  -4.6855  -4.6080  -4.5736  -4.5208  -4.4154  -4.2751
    -4.1857  -4.0986  -3.9912  -3.7583  -2.3044  -0.4885  -0.1019   0.6645
     1.0697   1.8439   2.4552   2.9519

          k = 0.3750 0.0722 0.0000 ( 19244 PWs)   bands (ev):

   -48.1027 -46.9715 -46.1681 -46.0128  -5.3775  -5.2154  -5.1809  -5.1036
    -4.9978  -4.8665  -4.7055  -4.6187  -4.5702  -4.5116  -4.4013  -4.2558
    -4.1482  -4.1053  -4.0390  -3.7709  -2.2808  -0.4561  -0.1363   0.6979
     1.1490   1.7182   2.4902   2.9793

          k = 0.3750 0.2165 0.0000 ( 19265 PWs)   bands (ev):

   -48.1027 -46.9715 -46.1681 -46.0129  -5.4204  -5.2239  -5.1626  -5.0152
    -4.8865  -4.8283  -4.7340  -4.6101  -4.5251  -4.4747  -4.4446  -4.3213
    -4.2971  -4.0580  -3.8064  -3.7250  -2.0351  -1.1039   0.0102   0.6878
     1.2030   1.4609   2.3831   3.0085

          k = 0.3750-0.7939 0.0000 ( 19267 PWs)   bands (ev):

   -48.1027 -46.9715 -46.1681 -46.0128  -5.3598  -5.1940  -5.1008  -4.9768
    -4.9047  -4.7224  -4.6663  -4.6146  -4.5531  -4.5076  -4.4610  -4.4037
    -4.2947  -4.0812  -3.9258  -3.1505  -2.0491  -1.1612  -0.1259   0.5341
     0.7012   1.6832   2.2178   2.5286

          k = 0.3750-0.6495 0.0000 ( 19252 PWs)   bands (ev):

   -48.1027 -46.9715 -46.1680 -46.0128  -5.2253  -5.1255  -5.0406  -4.9922
    -4.9368  -4.8378  -4.6232  -4.6006  -4.5291  -4.5012  -4.4191  -4.3743
    -4.2516  -4.1815  -4.1136  -2.3572  -2.2854  -1.3690  -0.1235   0.1675
     1.0108   1.3537   1.6966   2.6609

          k = 0.3750-0.5052 0.0000 ( 19252 PWs)   bands (ev):

   -48.1027 -46.9715 -46.1680 -46.0128  -5.1492  -5.1304  -5.0659  -5.0122
    -4.9497  -4.8607  -4.6357  -4.5543  -4.5458  -4.5160  -4.4337  -4.3638
    -4.2656  -4.1685  -4.0826  -2.3735  -2.3007  -1.3504  -0.1426   0.1157
     0.9807   1.1914   2.0155   2.4838

          k = 0.3750-0.3608 0.0000 ( 19267 PWs)   bands (ev):

   -48.1027 -46.9715 -46.1681 -46.0128  -5.2987  -5.1488  -5.1158  -5.0288
    -4.9041  -4.7608  -4.6990  -4.5985  -4.5431  -4.5187  -4.4692  -4.4009
    -4.3011  -4.0460  -3.8875  -3.1671  -2.1025  -1.1584  -0.1250   0.3916
     0.5966   1.8663   2.2672   2.6168

          k =-0.5000 0.2887 0.0000 ( 19296 PWs)   bands (ev):

   -48.1028 -46.9716 -46.1681 -46.0129  -5.3546  -5.1731  -5.1114  -5.0021
    -4.8261  -4.7443  -4.7154  -4.5993  -4.5448  -4.5286  -4.4727  -4.4089
    -4.3994  -4.0141  -3.7536  -2.8389  -2.6737  -0.9001  -0.5984   0.4770
     0.9678   1.6940   2.4235   2.8821

          k =-0.5000 0.4330 0.0000 ( 19267 PWs)   bands (ev):

   -48.1027 -46.9715 -46.1681 -46.0128  -5.2987  -5.1488  -5.1158  -5.0288
    -4.9041  -4.7608  -4.6990  -4.5985  -4.5431  -4.5187  -4.4692  -4.4009
    -4.3011  -4.0460  -3.8875  -3.1671  -2.1025  -1.1584  -0.1250   0.3916
     0.5966   1.8663   2.2672   2.6168

          k =-0.5000 0.5774 0.0000 ( 19252 PWs)   bands (ev):

   -48.1027 -46.9715 -46.1680 -46.0128  -5.2296  -5.1568  -5.1256  -5.0231
    -4.9821  -4.7605  -4.6841  -4.6114  -4.5501  -4.5217  -4.4579  -4.3288
    -4.1913  -4.1099  -4.0647  -3.2816  -1.7093  -1.0981  -0.4226   0.4489
     1.1198   1.2894   2.0715   2.6104

          k =-0.5000 0.7217 0.0000 ( 19267 PWs)   bands (ev):

   -48.1027 -46.9715 -46.1681 -46.0128  -5.3567  -5.1749  -5.1203  -4.9652
    -4.8611  -4.7831  -4.6949  -4.6382  -4.5370  -4.5015  -4.4489  -4.3947
    -4.2761  -4.0763  -3.9246  -3.1629  -2.0474  -1.1702  -0.1341   0.5454
     0.6680   1.6720   2.1755   2.6922

          k =-0.5000-0.2887 0.0000 ( 19296 PWs)   bands (ev):

   -48.1028 -46.9716 -46.1681 -46.0129  -5.4107  -5.2010  -5.1377  -4.9237
    -4.7968  -4.7606  -4.7016  -4.5799  -4.5627  -4.5242  -4.4646  -4.4151
    -4.3745  -4.0493  -3.7978  -2.8688  -2.5807  -0.8734  -0.5807   0.7287
     0.9922   1.4224   2.2499   2.8598

     the Fermi energy is    -0.0452 ev

!    total energy              =    -312.28029867 Ry
     estimated scf accuracy    <       0.00000023 Ry
     smearing contrib. (-TS)   =      -0.00064756 Ry
     internal energy E=F+TS    =    -312.27965110 Ry

     The total energy is F=E-TS. E is the sum of the following terms:
     one-electron contribution =   -1954.46137351 Ry
     hartree contribution      =     993.47057678 Ry
     xc contribution           =     -81.33429740 Ry
     ewald contribution        =     730.13197324 Ry
     DFT-D3 Dispersion         =      -0.08653022 Ry

     convergence has been achieved in   5 iterations

     negative rho (up, down):  1.467E-05 0.000E+00

     Forces acting on atoms (cartesian axes, Ry/au):

     atom    1 type  1   force =    -0.01640700    0.00947062   -0.00615441
     atom    2 type  1   force =    -0.00059935    0.00034698    0.00687787
     atom    3 type  1   force =     0.00007943   -0.00004609    0.01241356
     atom    4 type  2   force =     0.00127640   -0.00073613    0.00119880
     atom    5 type  2   force =     0.00098567   -0.00056840   -0.01617294
     atom    6 type  2   force =     0.00020733   -0.00011916   -0.00546196
     atom    7 type  2   force =     0.01445752   -0.00834781    0.00729907
     The non-local contrib.  to forces
     atom    1 type  1   force =    -0.00940721    0.00542910    0.04921683
     atom    2 type  1   force =    -0.00427981    0.00247108    0.01571047
     atom    3 type  1   force =    -0.00161208    0.00092988    0.00916407
     atom    4 type  2   force =     0.00378583   -0.00218551    0.01069055
     atom    5 type  2   force =     0.00036735   -0.00021171   -0.01429594
     atom    6 type  2   force =     0.00066641   -0.00038468   -0.06228189
     atom    7 type  2   force =     0.02031266   -0.01172759    0.06181945
     The ionic contribution  to forces
     atom    1 type  1   force =    -0.70316886    0.40591129   42.97942607
     atom    2 type  1   force =    -0.02259475    0.01311136    1.47604837
     atom    3 type  1   force =     0.00054754   -0.00030993  -45.66416165
     atom    4 type  2   force =     0.04530343   -0.02614851    7.82942045
     atom    5 type  2   force =     0.00021903   -0.00013860   -7.38572912
     atom    6 type  2   force =     0.00000472   -0.00000344  -17.32062665
     atom    7 type  2   force =     0.67968888   -0.39242217   18.08562254
     The local contribution  to forces
     atom    1 type  1   force =     0.69334086   -0.40023433  -43.03072435
     atom    2 type  1   force =     0.02601901   -0.01508854   -1.48431622
     atom    3 type  1   force =     0.00107775   -0.00062953   45.66314165
     atom    4 type  2   force =    -0.04800317    0.02770629   -7.83853410
     atom    5 type  2   force =     0.00040296   -0.00022014    7.38286224
     atom    6 type  2   force =    -0.00051471    0.00029802   17.37586338
     atom    7 type  2   force =    -0.68532861    0.39567775  -18.13766392
     The core correction contribution to forces
     atom    1 type  1   force =     0.00314400   -0.00181499   -0.00191352
     atom    2 type  1   force =     0.00006574   -0.00003809   -0.00250240
     atom    3 type  1   force =    -0.00001427    0.00000814    0.00230394
     atom    4 type  2   force =     0.00000000    0.00000000    0.00000000
     atom    5 type  2   force =     0.00000000    0.00000000    0.00000000
     atom    6 type  2   force =     0.00000000    0.00000000    0.00000000
     atom    7 type  2   force =     0.00000000    0.00000000    0.00000000
     The Hubbard contrib.    to forces
     atom    1 type  1   force =     0.00000000    0.00000000    0.00000000
     atom    2 type  1   force =     0.00000000    0.00000000    0.00000000
     atom    3 type  1   force =     0.00000000    0.00000000    0.00000000
     atom    4 type  2   force =     0.00000000    0.00000000    0.00000000
     atom    5 type  2   force =     0.00000000    0.00000000    0.00000000
     atom    6 type  2   force =     0.00000000    0.00000000    0.00000000
     atom    7 type  2   force =     0.00000000    0.00000000    0.00000000
     The SCF correction term to forces
     atom    1 type  1   force =    -0.00049989    0.00028522    0.00030522
     atom    2 type  1   force =     0.00011347   -0.00006483    0.00098784
     atom    3 type  1   force =     0.00004132   -0.00002254    0.00045698
     atom    4 type  2   force =    -0.00002673    0.00001638    0.00018757
     atom    5 type  2   force =    -0.00003999    0.00002249    0.00015570
     atom    6 type  2   force =     0.00000975   -0.00000583    0.00000889
     atom    7 type  2   force =     0.00008861   -0.00005187    0.00000879

     DFT-D3 dispersion contribution to forces:
     atom    1 type  1   force =     0.00014257   -0.00008222   -0.00237161
     atom    2 type  1   force =     0.00003545   -0.00002055    0.00104284
     atom    3 type  1   force =    -0.00000237    0.00000136    0.00160161
     atom    4 type  2   force =     0.00017550   -0.00010132   -0.00047264
     atom    5 type  2   force =    -0.00000522    0.00000301    0.00092721
     atom    6 type  2   force =    -0.00000038    0.00000022    0.00166735
     atom    7 type  2   force =    -0.00034556    0.00019951   -0.00239476

     Total force =     0.035028     Total SCF correction =     0.001304


     Computing stress (Cartesian axis) and pressure


     negative rho (up, down):  1.467E-05 0.000E+00
          total   stress  (Ry/bohr**3)                   (kbar)     P=       -7.17
  -0.00006227  -0.00000550   0.00001765           -9.16       -0.81        2.60
  -0.00000550  -0.00006863  -0.00001019           -0.81      -10.10       -1.50
   0.00001765  -0.00001019  -0.00001533            2.60       -1.50       -2.25

     Energy error            =      1.4E-03 Ry
     Gradient error          =      1.6E-02 Ry/Bohr

     number of scf cycles    =   2
     number of bfgs steps    =   1

     energy             old  =    -312.2789080970 Ry
     energy             new  =    -312.2802986673 Ry

     CASE: energy            _new < energy            _old


     WARNING: bfgs curvature condition failed, Theta= 0.874
     new trust radius        =       0.0245310835 bohr
     new conv_thr            =       0.0000001391 Ry


ATOMIC_POSITIONS (angstrom)
Ag            1.0839333239        0.6490619520       14.3384740811
Ag            3.3114353509        1.9127033736       12.7126700123
Ag            5.5203222344        3.1871067255       10.9164586377
Li            5.5222755218        3.1859897553       13.6647526906
Li            1.1052300262        0.6367500323       11.7835582284
Li            3.3123835182        1.9121550487        9.9934098495
Li            2.2255742726       -0.0100682890       16.3568971057



     Writing config-only to output data dir ./LiAg_mp-2426_111_bridge_2/LiAg_mp-2426_111_bridge_2.save/
     NEW-OLD atomic charge density approx. for the potential

     negative rho (up, down):  1.503E-05 0.000E+00

     total cpu time spent up to now is       14.8 secs

     per-process dynamical memory:   211.6 Mb

     Self-consistent Calculation

     iteration #  1     ecut=    55.00 Ry     beta= 0.30
     Davidson diagonalization with overlap
     ethr =  1.00E-06,  avg # of iterations =  6.0

     Threshold (ethr) on eigenvalues was too large:
     Diagonalizing with lowered threshold

     Davidson diagonalization with overlap
     ethr =  4.70E-08,  avg # of iterations =  2.0

     negative rho (up, down):  1.479E-05 0.000E+00

     total cpu time spent up to now is       15.6 secs

     total energy              =    -312.28171011 Ry
     estimated scf accuracy    <       0.00002186 Ry

     iteration #  2     ecut=    55.00 Ry     beta= 0.30
     Davidson diagonalization with overlap
     ethr =  4.86E-08,  avg # of iterations =  2.0

     negative rho (up, down):  1.639E-05 0.000E+00

     total cpu time spent up to now is       15.8 secs

     total energy              =    -312.28170438 Ry
     estimated scf accuracy    <       0.00014822 Ry

     iteration #  3     ecut=    55.00 Ry     beta= 0.30
     Davidson diagonalization with overlap
     ethr =  4.86E-08,  avg # of iterations =  1.4

     negative rho (up, down):  1.462E-05 0.000E+00

     total cpu time spent up to now is       16.0 secs

     total energy              =    -312.28171394 Ry
     estimated scf accuracy    <       0.00000703 Ry

     iteration #  4     ecut=    55.00 Ry     beta= 0.30
     Davidson diagonalization with overlap
     ethr =  1.56E-08,  avg # of iterations =  1.7

     negative rho (up, down):  1.463E-05 0.000E+00

     total cpu time spent up to now is       16.2 secs

     total energy              =    -312.28171451 Ry
     estimated scf accuracy    <       0.00000054 Ry

     iteration #  5     ecut=    55.00 Ry     beta= 0.30
     Davidson diagonalization with overlap
     ethr =  1.20E-09,  avg # of iterations =  4.8

     negative rho (up, down):  1.491E-05 0.000E+00

     total cpu time spent up to now is       16.5 secs

     total energy              =    -312.28171469 Ry
     estimated scf accuracy    <       0.00000024 Ry

     iteration #  6     ecut=    55.00 Ry     beta= 0.30
     Davidson diagonalization with overlap
     ethr =  5.40E-10,  avg # of iterations =  2.0

     negative rho (up, down):  1.457E-05 0.000E+00

     total cpu time spent up to now is       16.7 secs

     End of self-consistent calculation

          k = 0.0000 0.0000 0.0000 ( 19117 PWs)   bands (ev):

   -48.1066 -46.9763 -46.1621 -46.0069  -5.7185  -5.3633  -5.3545  -5.2316
    -5.2059  -5.1784  -4.7960  -4.7207  -4.7080  -4.4848  -4.4532  -4.0834
    -4.0827  -4.0417  -3.7568  -3.6972  -3.3753  -1.2861   0.0599   1.5538
     2.5329   2.7301   3.7167   4.1070

          k = 0.0000 0.1443 0.0000 ( 19191 PWs)   bands (ev):

   -48.1068 -46.9764 -46.1622 -46.0070  -5.6253  -5.3370  -5.3249  -5.2162
    -5.1787  -5.1215  -4.7682  -4.7047  -4.6803  -4.4889  -4.4528  -4.1211
    -4.0836  -4.0600  -3.8474  -3.7392  -3.1862  -1.1339   0.2038   1.6796
     2.5535   2.7167   2.9142   3.0995

          k = 0.0000 0.2887 0.0000 ( 19227 PWs)   bands (ev):

   -48.1068 -46.9764 -46.1622 -46.0070  -5.4720  -5.2738  -5.2254  -5.1709
    -5.0457  -4.9809  -4.7422  -4.6415  -4.5915  -4.4911  -4.3815  -4.2053
    -4.1644  -4.0834  -4.0316  -3.7640  -2.7071  -0.6998   0.3641   0.9071
     1.9439   2.1207   2.3874   3.1402

          k = 0.0000 0.4330 0.0000 ( 19265 PWs)   bands (ev):

   -48.1068 -46.9764 -46.1621 -46.0071  -5.4176  -5.2238  -5.1578  -5.0087
    -4.8788  -4.8225  -4.7249  -4.6025  -4.5171  -4.4685  -4.4395  -4.3138
    -4.2901  -4.0467  -3.7950  -3.7200  -2.0301  -1.0978   0.0114   0.6938
     1.2077   1.4611   2.3865   3.0057

          k = 0.0000-0.5774 0.0000 ( 19296 PWs)   bands (ev):

   -48.1068 -46.9764 -46.1621 -46.0071  -5.4078  -5.2012  -5.1331  -4.9152
    -4.7908  -4.7489  -4.6958  -4.5690  -4.5522  -4.5193  -4.4613  -4.4110
    -4.3686  -4.0373  -3.7862  -2.8651  -2.5772  -0.8657  -0.5772   0.7314
     0.9968   1.4252   2.2514   2.8569

          k = 0.1250-0.0722 0.0000 ( 19191 PWs)   bands (ev):

   -48.1068 -46.9764 -46.1622 -46.0070  -5.6139  -5.3539  -5.3083  -5.2184
    -5.1732  -5.1353  -4.7582  -4.7122  -4.6755  -4.4861  -4.4645  -4.1222
    -4.1116  -4.0307  -3.8636  -3.7059  -3.2044  -1.1396   0.2034   1.6923
     2.5589   2.6933   2.9027   3.0916

          k = 0.1250 0.0722 0.0000 ( 19191 PWs)   bands (ev):

   -48.1068 -46.9764 -46.1622 -46.0070  -5.6253  -5.3370  -5.3249  -5.2162
    -5.1787  -5.1215  -4.7682  -4.7047  -4.6803  -4.4889  -4.4528  -4.1211
    -4.0836  -4.0600  -3.8474  -3.7392  -3.1862  -1.1339   0.2038   1.6796
     2.5535   2.7167   2.9142   3.0995

          k = 0.1250 0.2165 0.0000 ( 19214 PWs)   bands (ev):

   -48.1068 -46.9764 -46.1622 -46.0070  -5.5001  -5.3107  -5.2417  -5.1656
    -5.1491  -4.9884  -4.7311  -4.6905  -4.6206  -4.4907  -4.4003  -4.1858
    -4.1163  -4.0669  -4.0043  -3.7826  -2.8479  -0.8342   0.4454   1.4413
     1.6864   2.0807   2.9836   3.1472

          k = 0.1250 0.3608 0.0000 ( 19244 PWs)   bands (ev):

   -48.1067 -46.9763 -46.1621 -46.0070  -5.3916  -5.2478  -5.1479  -5.1049
    -5.0033  -4.8037  -4.6967  -4.6509  -4.5635  -4.4562  -4.3899  -4.2608
    -4.1754  -4.1048  -4.0026  -3.7805  -2.2441  -0.4687  -0.1062   0.7025
     1.2395   1.7018   2.4435   2.9797

          k = 0.1250-0.6495 0.0000 ( 19267 PWs)   bands (ev):

   -48.1068 -46.9763 -46.1621 -46.0070  -5.3570  -5.1931  -5.0964  -4.9706
    -4.8964  -4.7156  -4.6586  -4.6074  -4.5412  -4.5042  -4.4529  -4.3987
    -4.2874  -4.0705  -3.9146  -3.1469  -2.0453  -1.1544  -0.1205   0.5379
     0.7039   1.6857   2.2192   2.5315

          k = 0.1250-0.5052 0.0000 ( 19267 PWs)   bands (ev):

   -48.1068 -46.9763 -46.1621 -46.0070  -5.3537  -5.1732  -5.1163  -4.9572
    -4.8544  -4.7760  -4.6843  -4.6310  -4.5294  -4.4960  -4.4439  -4.3886
    -4.2693  -4.0651  -3.9140  -3.1580  -2.0441  -1.1624  -0.1318   0.5481
     0.6733   1.6757   2.1774   2.6936

          k = 0.1250-0.3608 0.0000 ( 19244 PWs)   bands (ev):

   -48.1067 -46.9763 -46.1621 -46.0070  -5.3745  -5.2110  -5.1780  -5.0974
    -4.9941  -4.8587  -4.6977  -4.6131  -4.5637  -4.5037  -4.3968  -4.2465
    -4.1403  -4.0962  -4.0296  -3.7620  -2.2738  -0.4518  -0.1337   0.7024
     1.1486   1.7242   2.4926   2.9818

          k = 0.1250-0.2165 0.0000 ( 19214 PWs)   bands (ev):

   -48.1068 -46.9764 -46.1622 -46.0070  -5.4686  -5.3082  -5.2508  -5.1761
    -5.1366  -5.0169  -4.7204  -4.6714  -4.6184  -4.5049  -4.4275  -4.2115
    -4.1180  -4.0461  -3.9965  -3.7473  -2.8800  -0.8496   0.4598   1.4406
     1.6467   2.0671   2.9702   3.1471

          k = 0.2500-0.1443 0.0000 ( 19227 PWs)   bands (ev):

   -48.1068 -46.9764 -46.1622 -46.0070  -5.4165  -5.2877  -5.2097  -5.1946
    -5.0592  -5.0021  -4.7187  -4.6163  -4.6014  -4.4861  -4.4418  -4.2066
    -4.1936  -4.0798  -3.9959  -3.7276  -2.7440  -0.7261   0.3922   0.8561
     1.9845   2.0827   2.3768   3.1658

          k = 0.2500 0.0000 0.0000 ( 19214 PWs)   bands (ev):

   -48.1068 -46.9764 -46.1622 -46.0070  -5.4686  -5.3082  -5.2508  -5.1761
    -5.1366  -5.0169  -4.7204  -4.6714  -4.6184  -4.5049  -4.4275  -4.2115
    -4.1180  -4.0461  -3.9965  -3.7473  -2.8800  -0.8496   0.4598   1.4406
     1.6467   2.0671   2.9702   3.1471

          k = 0.2500 0.1443 0.0000 ( 19227 PWs)   bands (ev):

   -48.1068 -46.9764 -46.1622 -46.0070  -5.4720  -5.2738  -5.2254  -5.1709
    -5.0457  -4.9809  -4.7422  -4.6415  -4.5915  -4.4911  -4.3815  -4.2053
    -4.1644  -4.0834  -4.0316  -3.7640  -2.7071  -0.6998   0.3641   0.9071
     1.9439   2.1207   2.3874   3.1404

          k = 0.2500 0.2887 0.0000 ( 19244 PWs)   bands (ev):

   -48.1067 -46.9763 -46.1621 -46.0070  -5.3916  -5.2478  -5.1479  -5.1049
    -5.0033  -4.8037  -4.6967  -4.6509  -4.5635  -4.4562  -4.3899  -4.2608
    -4.1754  -4.1048  -4.0026  -3.7805  -2.2441  -0.4687  -0.1062   0.7025
     1.2395   1.7018   2.4435   2.9797

          k = 0.2500-0.7217 0.0000 ( 19252 PWs)   bands (ev):

   -48.1067 -46.9763 -46.1620 -46.0070  -5.2778  -5.1703  -5.1136  -5.0031
    -4.9728  -4.6778  -4.6691  -4.6093  -4.5304  -4.5235  -4.4292  -4.3693
    -4.1985  -4.1205  -4.0617  -3.2609  -1.6508  -1.1438  -0.3775   0.5322
     1.2045   1.3034   1.9493   2.4914

          k = 0.2500-0.5774 0.0000 ( 19252 PWs)   bands (ev):

   -48.1067 -46.9763 -46.1620 -46.0070  -5.2232  -5.1214  -5.0348  -4.9863
    -4.9286  -4.8334  -4.6142  -4.5916  -4.5210  -4.4966  -4.4144  -4.3659
    -4.2451  -4.1731  -4.1018  -2.3511  -2.2835  -1.3627  -0.1209   0.1732
     1.0146   1.3582   1.6999   2.6601

          k = 0.2500-0.4330 0.0000 ( 19252 PWs)   bands (ev):

   -48.1067 -46.9763 -46.1620 -46.0070  -5.2258  -5.1500  -5.1197  -5.0197
    -4.9771  -4.7523  -4.6771  -4.6055  -4.5426  -4.5133  -4.4543  -4.3207
    -4.1820  -4.1006  -4.0579  -3.2759  -1.7005  -1.0955  -0.4193   0.4494
     1.1240   1.2960   2.0716   2.6167

          k = 0.2500-0.2887 0.0000 ( 19244 PWs)   bands (ev):

   -48.1067 -46.9763 -46.1621 -46.0070  -5.3215  -5.2302  -5.1734  -5.1065
    -5.0260  -4.8539  -4.6804  -4.6019  -4.5678  -4.5116  -4.4095  -4.2666
    -4.1730  -4.0930  -3.9835  -3.7510  -2.2959  -0.4826  -0.1030   0.6709
     1.0704   1.8463   2.4606   2.9528

          k = 0.3750-0.2165 0.0000 ( 19265 PWs)   bands (ev):

   -48.1068 -46.9764 -46.1621 -46.0071  -5.3547  -5.1956  -5.1321  -5.0880
    -4.8756  -4.8637  -4.7139  -4.5574  -4.5240  -4.4892  -4.4726  -4.3151
    -4.3144  -4.0212  -3.7445  -3.7336  -2.0933  -1.0914  -0.0166   0.5243
     1.2394   1.5782   2.4059   3.2319

          k = 0.3750-0.0722 0.0000 ( 19244 PWs)   bands (ev):

   -48.1067 -46.9763 -46.1621 -46.0070  -5.3215  -5.2302  -5.1734  -5.1065
    -5.0260  -4.8539  -4.6804  -4.6019  -4.5678  -4.5116  -4.4095  -4.2666
    -4.1730  -4.0930  -3.9835  -3.7510  -2.2959  -0.4826  -0.1030   0.6709
     1.0704   1.8463   2.4606   2.9528

          k = 0.3750 0.0722 0.0000 ( 19244 PWs)   bands (ev):

   -48.1067 -46.9763 -46.1621 -46.0070  -5.3745  -5.2110  -5.1780  -5.0975
    -4.9941  -4.8587  -4.6977  -4.6131  -4.5637  -4.5037  -4.3968  -4.2465
    -4.1403  -4.0962  -4.0296  -3.7620  -2.2738  -0.4518  -0.1337   0.7024
     1.1486   1.7242   2.4926   2.9818

          k = 0.3750 0.2165 0.0000 ( 19265 PWs)   bands (ev):

   -48.1068 -46.9764 -46.1621 -46.0071  -5.4176  -5.2238  -5.1578  -5.0087
    -4.8788  -4.8225  -4.7249  -4.6025  -4.5171  -4.4685  -4.4395  -4.3138
    -4.2901  -4.0467  -3.7950  -3.7200  -2.0300  -1.0978   0.0114   0.6938
     1.2077   1.4611   2.3865   3.0057

          k = 0.3750-0.7939 0.0000 ( 19267 PWs)   bands (ev):

   -48.1068 -46.9763 -46.1621 -46.0070  -5.3570  -5.1931  -5.0964  -4.9706
    -4.8964  -4.7156  -4.6586  -4.6074  -4.5412  -4.5042  -4.4529  -4.3987
    -4.2874  -4.0705  -3.9146  -3.1469  -2.0453  -1.1544  -0.1205   0.5378
     0.7039   1.6858   2.2192   2.5315

          k = 0.3750-0.6495 0.0000 ( 19252 PWs)   bands (ev):

   -48.1067 -46.9763 -46.1620 -46.0070  -5.2231  -5.1214  -5.0348  -4.9863
    -4.9286  -4.8334  -4.6142  -4.5916  -4.5210  -4.4966  -4.4144  -4.3659
    -4.2451  -4.1731  -4.1019  -2.3511  -2.2835  -1.3627  -0.1209   0.1732
     1.0146   1.3582   1.7000   2.6600

          k = 0.3750-0.5052 0.0000 ( 19252 PWs)   bands (ev):

   -48.1067 -46.9763 -46.1620 -46.0070  -5.1407  -5.1268  -5.0586  -5.0107
    -4.9416  -4.8564  -4.6279  -4.5460  -4.5378  -4.5112  -4.4242  -4.3608
    -4.2578  -4.1598  -4.0746  -2.3635  -2.2985  -1.3478  -0.1374   0.1193
     0.9822   1.1947   2.0236   2.4856

          k = 0.3750-0.3608 0.0000 ( 19267 PWs)   bands (ev):

   -48.1068 -46.9763 -46.1621 -46.0070  -5.2901  -5.1444  -5.1082  -5.0272
    -4.8977  -4.7538  -4.6938  -4.5951  -4.5344  -4.5102  -4.4601  -4.3971
    -4.2923  -4.0377  -3.8811  -3.1615  -2.0935  -1.1552  -0.1208   0.3917
     0.6006   1.8704   2.2699   2.6217

          k =-0.5000 0.2887 0.0000 ( 19296 PWs)   bands (ev):

   -48.1068 -46.9764 -46.1622 -46.0071  -5.3460  -5.1685  -5.1028  -5.0008
    -4.8175  -4.7405  -4.7088  -4.5979  -4.5294  -4.5233  -4.4682  -4.3996
    -4.3953  -4.0055  -3.7469  -2.8366  -2.6635  -0.8916  -0.5970   0.4750
     0.9720   1.7009   2.4265   2.8823

          k =-0.5000 0.4330 0.0000 ( 19267 PWs)   bands (ev):

   -48.1068 -46.9763 -46.1621 -46.0070  -5.2901  -5.1444  -5.1083  -5.0272
    -4.8977  -4.7538  -4.6938  -4.5951  -4.5344  -4.5102  -4.4601  -4.3971
    -4.2923  -4.0377  -3.8811  -3.1615  -2.0935  -1.1552  -0.1208   0.3917
     0.6006   1.8704   2.2699   2.6217

          k =-0.5000 0.5774 0.0000 ( 19252 PWs)   bands (ev):

   -48.1067 -46.9763 -46.1620 -46.0070  -5.2258  -5.1500  -5.1197  -5.0197
    -4.9771  -4.7523  -4.6771  -4.6055  -4.5426  -4.5133  -4.4543  -4.3207
    -4.1820  -4.1006  -4.0579  -3.2759  -1.7005  -1.0955  -0.4193   0.4494
     1.1240   1.2961   2.0716   2.6167

          k =-0.5000 0.7217 0.0000 ( 19267 PWs)   bands (ev):

   -48.1068 -46.9763 -46.1621 -46.0070  -5.3537  -5.1732  -5.1163  -4.9572
    -4.8544  -4.7760  -4.6843  -4.6310  -4.5294  -4.4960  -4.4439  -4.3886
    -4.2693  -4.0651  -3.9140  -3.1580  -2.0441  -1.1624  -0.1318   0.5481
     0.6733   1.6757   2.1774   2.6936

          k =-0.5000-0.2887 0.0000 ( 19296 PWs)   bands (ev):

   -48.1068 -46.9764 -46.1621 -46.0071  -5.4078  -5.2012  -5.1331  -4.9153
    -4.7908  -4.7489  -4.6958  -4.5690  -4.5522  -4.5193  -4.4613  -4.4110
    -4.3686  -4.0373  -3.7862  -2.8651  -2.5772  -0.8657  -0.5772   0.7313
     0.9968   1.4252   2.2513   2.8569

     the Fermi energy is    -0.0425 ev

!    total energy              =    -312.28171474 Ry
     estimated scf accuracy    <       0.00000004 Ry
     smearing contrib. (-TS)   =      -0.00066032 Ry
     internal energy E=F+TS    =    -312.28105442 Ry

     The total energy is F=E-TS. E is the sum of the following terms:
     one-electron contribution =   -1955.57337530 Ry
     hartree contribution      =     994.03469582 Ry
     xc contribution           =     -81.33237173 Ry
     ewald contribution        =     730.67651638 Ry
     DFT-D3 Dispersion         =      -0.08651959 Ry

     convergence has been achieved in   6 iterations

     negative rho (up, down):  1.457E-05 0.000E+00

     Forces acting on atoms (cartesian axes, Ry/au):

     atom    1 type  1   force =    -0.01427383    0.00824043   -0.00420681
     atom    2 type  1   force =    -0.00075016    0.00043262    0.00602399
     atom    3 type  1   force =     0.00009143   -0.00005200    0.01153459
     atom    4 type  2   force =     0.00044088   -0.00025437    0.00136254
     atom    5 type  2   force =     0.00088965   -0.00051355   -0.01513228
     atom    6 type  2   force =     0.00016978   -0.00009798   -0.00494576
     atom    7 type  2   force =     0.01343226   -0.00775516    0.00536374
     The non-local contrib.  to forces
     atom    1 type  1   force =    -0.00990806    0.00571922    0.04759674
     atom    2 type  1   force =    -0.00501978    0.00289881    0.01558565
     atom    3 type  1   force =    -0.00153451    0.00088605    0.01087935
     atom    4 type  2   force =     0.00322183   -0.00186018    0.01089524
     atom    5 type  2   force =     0.00037654   -0.00021747   -0.01417902
     atom    6 type  2   force =     0.00066914   -0.00038640   -0.06222008
     atom    7 type  2   force =     0.01992406   -0.01150322    0.06077552
     The ionic contribution  to forces
     atom    1 type  1   force =    -0.63319089    0.36551717   42.97844042
     atom    2 type  1   force =    -0.04944779    0.02860651    1.53850225
     atom    3 type  1   force =    -0.00188445    0.00109821  -45.60092893
     atom    4 type  2   force =     0.02084841   -0.01203214    7.84686476
     atom    5 type  2   force =     0.00388956   -0.00225803   -7.47014253
     atom    6 type  2   force =     0.00002984   -0.00001894  -17.33862129
     atom    7 type  2   force =     0.65975532   -0.38091279   18.04588532
     The local contribution  to forces
     atom    1 type  1   force =     0.62614137   -0.36144858  -43.02586546
     atom    2 type  1   force =     0.05351238   -0.03095254   -1.54701468
     atom    3 type  1   force =     0.00352121   -0.00204323   45.59770620
     atom    4 type  2   force =    -0.02385810    0.01377013   -7.85599108
     atom    5 type  2   force =    -0.00337174    0.00195886    7.46830873
     atom    6 type  2   force =    -0.00053966    0.00031318   17.39425921
     atom    7 type  2   force =    -0.66593525    0.38448044  -18.09897424
     The core correction contribution to forces
     atom    1 type  1   force =     0.00285310   -0.00164719   -0.00217553
     atom    2 type  1   force =     0.00009901   -0.00005726   -0.00241218
     atom    3 type  1   force =    -0.00001680    0.00000963    0.00237564
     atom    4 type  2   force =     0.00000000    0.00000000    0.00000000
     atom    5 type  2   force =     0.00000000    0.00000000    0.00000000
     atom    6 type  2   force =     0.00000000    0.00000000    0.00000000
     atom    7 type  2   force =     0.00000000    0.00000000    0.00000000
     The Hubbard contrib.    to forces
     atom    1 type  1   force =     0.00000000    0.00000000    0.00000000
     atom    2 type  1   force =     0.00000000    0.00000000    0.00000000
     atom    3 type  1   force =     0.00000000    0.00000000    0.00000000
     atom    4 type  2   force =     0.00000000    0.00000000    0.00000000
     atom    5 type  2   force =     0.00000000    0.00000000    0.00000000
     atom    6 type  2   force =     0.00000000    0.00000000    0.00000000
     atom    7 type  2   force =     0.00000000    0.00000000    0.00000000
     The SCF correction term to forces
     atom    1 type  1   force =    -0.00028312    0.00016539    0.00025838
     atom    2 type  1   force =     0.00001888   -0.00001254    0.00031541
     atom    3 type  1   force =    -0.00000496    0.00000364   -0.00012234
     atom    4 type  2   force =     0.00002925   -0.00001703    0.00008096
     atom    5 type  2   force =    -0.00001516    0.00000911   -0.00000692
     atom    6 type  2   force =    -0.00000044    0.00000045   -0.00000850
     atom    7 type  2   force =     0.00003892   -0.00002214    0.00005969

     DFT-D3 dispersion contribution to forces:
     atom    1 type  1   force =     0.00010207   -0.00005886   -0.00244326
     atom    2 type  1   force =     0.00007544   -0.00004362    0.00106564
     atom    3 type  1   force =    -0.00000076    0.00000042    0.00164276
     atom    4 type  2   force =     0.00018779   -0.00010841   -0.00046924
     atom    5 type  2   force =    -0.00000125    0.00000071    0.00090556
     atom    6 type  2   force =    -0.00000080    0.00000046    0.00166300
     atom    7 type  2   force =    -0.00036249    0.00020929   -0.00236446

     Total force =     0.031392     Total SCF correction =     0.000550


     Computing stress (Cartesian axis) and pressure


     negative rho (up, down):  1.457E-05 0.000E+00
          total   stress  (Ry/bohr**3)                   (kbar)     P=       -7.35
  -0.00006295  -0.00000469   0.00001682           -9.26       -0.69        2.48
  -0.00000469  -0.00006836  -0.00000971           -0.69      -10.06       -1.43
   0.00001682  -0.00000971  -0.00001850            2.48       -1.43       -2.72

     Energy error            =      1.4E-03 Ry
     Gradient error          =      1.5E-02 Ry/Bohr

     number of scf cycles    =   3
     number of bfgs steps    =   2

     energy             old  =    -312.2802986673 Ry
     energy             new  =    -312.2817147383 Ry

     CASE: energy            _new < energy            _old

     new trust radius        =       0.0367966253 bohr
     new conv_thr            =       0.0000001416 Ry


ATOMIC_POSITIONS (angstrom)
Ag            1.0677366330        0.6584120650       14.3330520094
Ag            3.3106416605        1.9131614200       12.7194405544
Ag            5.5204008320        3.1870618232       10.9292781432
Li            5.5230975217        3.1855154877       13.6661569778
Li            1.1062183337        0.6361799024       11.7668337236
Li            3.3125647184        1.9120504712        9.9878885384
Li            2.2404945487       -0.0186825711       16.3635706586



     Writing config-only to output data dir ./LiAg_mp-2426_111_bridge_2/LiAg_mp-2426_111_bridge_2.save/
     NEW-OLD atomic charge density approx. for the potential

     negative rho (up, down):  1.548E-05 0.000E+00

     total cpu time spent up to now is       17.8 secs

     per-process dynamical memory:   214.1 Mb

     Self-consistent Calculation

     iteration #  1     ecut=    55.00 Ry     beta= 0.30
     Davidson diagonalization with overlap
     ethr =  1.00E-06,  avg # of iterations =  7.2

     Threshold (ethr) on eigenvalues was too large:
     Diagonalizing with lowered threshold

     Davidson diagonalization with overlap
     ethr =  6.85E-08,  avg # of iterations =  1.5

     negative rho (up, down):  1.497E-05 0.000E+00

     total cpu time spent up to now is       18.6 secs

     total energy              =    -312.28364365 Ry
     estimated scf accuracy    <       0.00003099 Ry

     iteration #  2     ecut=    55.00 Ry     beta= 0.30
     Davidson diagonalization with overlap
     ethr =  6.89E-08,  avg # of iterations =  1.0

     negative rho (up, down):  1.530E-05 0.000E+00

     total cpu time spent up to now is       18.8 secs

     total energy              =    -312.28364447 Ry
     estimated scf accuracy    <       0.00000957 Ry

     iteration #  3     ecut=    55.00 Ry     beta= 0.30
     Davidson diagonalization with overlap
     ethr =  2.13E-08,  avg # of iterations =  2.0

     negative rho (up, down):  1.463E-05 0.000E+00

     total cpu time spent up to now is       19.0 secs

     total energy              =    -312.28364259 Ry
     estimated scf accuracy    <       0.00005518 Ry

     iteration #  4     ecut=    55.00 Ry     beta= 0.30
     Davidson diagonalization with overlap
     ethr =  2.13E-08,  avg # of iterations =  1.4

     negative rho (up, down):  1.456E-05 0.000E+00

     total cpu time spent up to now is       19.3 secs

     total energy              =    -312.28364627 Ry
     estimated scf accuracy    <       0.00000364 Ry

     iteration #  5     ecut=    55.00 Ry     beta= 0.30
     Davidson diagonalization with overlap
     ethr =  8.08E-09,  avg # of iterations =  1.6

     negative rho (up, down):  1.514E-05 0.000E+00

     total cpu time spent up to now is       19.5 secs

     total energy              =    -312.28364676 Ry
     estimated scf accuracy    <       0.00000060 Ry

     iteration #  6     ecut=    55.00 Ry     beta= 0.30
     Davidson diagonalization with overlap
     ethr =  1.33E-09,  avg # of iterations =  3.1

     negative rho (up, down):  1.447E-05 0.000E+00

     total cpu time spent up to now is       19.9 secs

     End of self-consistent calculation

          k = 0.0000 0.0000 0.0000 ( 19117 PWs)   bands (ev):

   -48.1121 -46.9843 -46.1538 -45.9998  -5.7178  -5.3558  -5.3491  -5.2309
    -5.2008  -5.1682  -4.7832  -4.7165  -4.7039  -4.4726  -4.4419  -4.0637
    -4.0632  -4.0300  -3.7375  -3.6864  -3.3632  -1.2833   0.0625   1.5566
     2.5313   2.7268   3.7199   4.1010

          k = 0.0000 0.1443 0.0000 ( 19191 PWs)   bands (ev):

   -48.1122 -46.9844 -46.1539 -45.9999  -5.6244  -5.3309  -5.3183  -5.2128
    -5.1748  -5.1121  -4.7566  -4.6977  -4.6760  -4.4773  -4.4420  -4.1035
    -4.0675  -4.0440  -3.8316  -3.7239  -3.1753  -1.1312   0.2066   1.6822
     2.5615   2.7160   2.9118   3.1083

          k = 0.0000 0.2887 0.0000 ( 19227 PWs)   bands (ev):

   -48.1122 -46.9844 -46.1539 -45.9999  -5.4697  -5.2721  -5.2176  -5.1639
    -5.0400  -4.9719  -4.7318  -4.6314  -4.5834  -4.4818  -4.3734  -4.1922
    -4.1502  -4.0677  -4.0136  -3.7476  -2.6976  -0.6969   0.3733   0.9071
     1.9533   2.1268   2.3888   3.1374

          k = 0.0000 0.4330 0.0000 ( 19265 PWs)   bands (ev):

   -48.1123 -46.9844 -46.1538 -46.0000  -5.4137  -5.2244  -5.1508  -4.9993
    -4.8681  -4.8141  -4.7113  -4.5917  -4.5049  -4.4594  -4.4319  -4.3025
    -4.2789  -4.0295  -3.7778  -3.7121  -2.0228  -1.0889   0.0130   0.7024
     1.2152   1.4613   2.3917   3.0011

          k = 0.0000-0.5774 0.0000 ( 19296 PWs)   bands (ev):

   -48.1123 -46.9844 -46.1539 -46.0000  -5.4035  -5.2023  -5.1263  -4.9032
    -4.7835  -4.7309  -4.6871  -4.5541  -4.5366  -4.5111  -4.4556  -4.4051
    -4.3593  -4.0189  -3.7687  -2.8593  -2.5722  -0.8541  -0.5728   0.7355
     1.0037   1.4298   2.2531   2.8520

          k = 0.1250-0.0722 0.0000 ( 19191 PWs)   bands (ev):

   -48.1122 -46.9844 -46.1539 -45.9999  -5.6120  -5.3468  -5.3020  -5.2158
    -5.1681  -5.1275  -4.7465  -4.7058  -4.6711  -4.4742  -4.4536  -4.1042
    -4.0920  -4.0191  -3.8445  -3.6955  -3.1926  -1.1368   0.2065   1.6950
     2.5655   2.6915   2.8999   3.1027

          k = 0.1250 0.0722 0.0000 ( 19191 PWs)   bands (ev):

   -48.1122 -46.9844 -46.1539 -45.9999  -5.6244  -5.3309  -5.3183  -5.2128
    -5.1748  -5.1121  -4.7566  -4.6977  -4.6760  -4.4773  -4.4420  -4.1035
    -4.0675  -4.0440  -3.8316  -3.7239  -3.1753  -1.1312   0.2066   1.6822
     2.5615   2.7160   2.9118   3.1083

          k = 0.1250 0.2165 0.0000 ( 19214 PWs)   bands (ev):

   -48.1122 -46.9844 -46.1539 -45.9999  -5.4994  -5.3051  -5.2356  -5.1592
    -5.1459  -4.9790  -4.7205  -4.6789  -4.6156  -4.4807  -4.3909  -4.1755
    -4.0974  -4.0490  -3.9895  -3.7651  -2.8386  -0.8315   0.4504   1.4492
     1.6906   2.0871   2.9836   3.1431

          k = 0.1250 0.3608 0.0000 ( 19244 PWs)   bands (ev):

   -48.1122 -46.9844 -46.1538 -45.9999  -5.3895  -5.2447  -5.1403  -5.0996
    -4.9961  -4.7937  -4.6851  -4.6387  -4.5541  -4.4492  -4.3771  -4.2505
    -4.1575  -4.0931  -3.9879  -3.7660  -2.2367  -0.4598  -0.1006   0.7089
     1.2393   1.7081   2.4499   2.9805

          k = 0.1250-0.6495 0.0000 ( 19267 PWs)   bands (ev):

   -48.1122 -46.9844 -46.1538 -45.9999  -5.3532  -5.1925  -5.0898  -4.9618
    -4.8844  -4.7059  -4.6471  -4.5967  -4.5254  -4.4979  -4.4402  -4.3910
    -4.2760  -4.0540  -3.8974  -3.1417  -2.0398  -1.1444  -0.1127   0.5435
     0.7077   1.6899   2.2209   2.5354

          k = 0.1250-0.5052 0.0000 ( 19267 PWs)   bands (ev):

   -48.1122 -46.9844 -46.1538 -45.9999  -5.3493  -5.1719  -5.1102  -4.9454
    -4.8450  -4.7663  -4.6684  -4.6204  -4.5188  -4.4870  -4.4362  -4.3791
    -4.2588  -4.0481  -3.8978  -3.1507  -2.0393  -1.1510  -0.1290   0.5520
     0.6814   1.6814   2.1800   2.6948

          k = 0.1250-0.3608 0.0000 ( 19244 PWs)   bands (ev):

   -48.1122 -46.9844 -46.1538 -45.9999  -5.3701  -5.2055  -5.1734  -5.0883
    -4.9889  -4.8476  -4.6862  -4.6050  -4.5538  -4.4918  -4.3899  -4.2332
    -4.1284  -4.0822  -4.0148  -3.7487  -2.2636  -0.4454  -0.1299   0.7092
     1.1476   1.7330   2.4960   2.9846

          k = 0.1250-0.2165 0.0000 ( 19214 PWs)   bands (ev):

   -48.1122 -46.9844 -46.1539 -45.9999  -5.4649  -5.3005  -5.2463  -5.1707
    -5.1319  -5.0094  -4.7101  -4.6640  -4.6108  -4.4942  -4.4181  -4.1961
    -4.0991  -4.0340  -3.9791  -3.7352  -2.8690  -0.8466   0.4646   1.4446
     1.6536   2.0707   2.9699   3.1441

          k = 0.2500-0.1443 0.0000 ( 19227 PWs)   bands (ev):

   -48.1122 -46.9844 -46.1539 -45.9999  -5.4066  -5.2855  -5.2009  -5.1910
    -5.0543  -4.9956  -4.7107  -4.6031  -4.5963  -4.4769  -4.4320  -4.1918
    -4.1755  -4.0641  -3.9820  -3.7178  -2.7321  -0.7226   0.4006   0.8555
     1.9932   2.0855   2.3816   3.1643

          k = 0.2500 0.0000 0.0000 ( 19214 PWs)   bands (ev):

   -48.1122 -46.9844 -46.1539 -45.9999  -5.4649  -5.3005  -5.2463  -5.1707
    -5.1319  -5.0094  -4.7101  -4.6640  -4.6108  -4.4942  -4.4181  -4.1961
    -4.0991  -4.0340  -3.9791  -3.7352  -2.8690  -0.8466   0.4646   1.4446
     1.6536   2.0707   2.9699   3.1441

          k = 0.2500 0.1443 0.0000 ( 19227 PWs)   bands (ev):

   -48.1122 -46.9844 -46.1539 -45.9999  -5.4697  -5.2721  -5.2176  -5.1639
    -5.0400  -4.9719  -4.7318  -4.6314  -4.5834  -4.4818  -4.3734  -4.1922
[...]

   -47.8542 -47.0284 -46.2190 -46.1718  -5.4125  -5.2498  -5.2256  -5.1569
    -5.0097  -4.9356  -4.7667  -4.6412  -4.6058  -4.5771  -4.4820  -4.3041
    -4.1602  -4.0913  -3.9896  -3.8220  -2.9002  -0.6987   0.4659   0.9707
     1.8635   2.1332   2.4608   3.2731

          k = 0.0000 0.4330 0.0000 ( 19265 PWs)   bands (ev):

   -47.8542 -47.0284 -46.2188 -46.1719  -5.3646  -5.1878  -5.1494  -5.0257
    -4.8375  -4.8338  -4.7379  -4.5998  -4.5678  -4.5436  -4.4845  -4.2940
    -4.2782  -4.0646  -3.8360  -3.7489  -2.2483  -1.1588  -0.0451   0.5143
     1.1311   1.6858   2.5308   3.2172

          k = 0.0000-0.5774 0.0000 ( 19296 PWs)   bands (ev):

   -47.8543 -47.0285 -46.2188 -46.1720  -5.3568  -5.1578  -5.1186  -4.9501
    -4.8466  -4.7437  -4.7323  -4.5892  -4.5569  -4.5177  -4.4611  -4.3937
    -4.3647  -4.0455  -3.8383  -2.8507  -2.7207  -1.0321  -0.8553   0.6569
     0.8685   1.6612   2.5184   3.0322

          k = 0.1250-0.0722 0.0000 ( 19191 PWs)   bands (ev):

   -47.8542 -47.0285 -46.2192 -46.1716  -5.5768  -5.3374  -5.3036  -5.1855
    -5.1323  -5.0770  -4.7849  -4.7283  -4.7206  -4.5442  -4.5393  -4.1943
    -4.0836  -4.0655  -3.8790  -3.8213  -3.3357  -1.1047   0.4526   2.0148
     2.4922   2.8209   2.9523   2.9554

          k = 0.1250 0.0722 0.0000 ( 19191 PWs)   bands (ev):

   -47.8542 -47.0285 -46.2192 -46.1716  -5.5800  -5.3299  -5.3108  -5.1903
    -5.1324  -5.0704  -4.7806  -4.7312  -4.7229  -4.5519  -4.5315  -4.1957
    -4.0832  -4.0620  -3.8901  -3.8053  -3.3394  -1.1049   0.4516   2.0186
     2.4931   2.8203   2.9525   2.9553

          k = 0.1250 0.2165 0.0000 ( 19214 PWs)   bands (ev):

   -47.8542 -47.0284 -46.2191 -46.1717  -5.4329  -5.3031  -5.2362  -5.1523
    -5.0988  -4.9504  -4.7424  -4.7107  -4.6247  -4.5863  -4.4942  -4.2834
    -4.1119  -4.0853  -3.9728  -3.8267  -3.0431  -0.8236   0.7068   1.3624
     1.5956   2.3475   2.9718   3.1695

          k = 0.1250 0.3608 0.0000 ( 19244 PWs)   bands (ev):

   -47.8542 -47.0284 -46.2189 -46.1719  -5.3312  -5.2271  -5.1488  -5.0726
    -4.9702  -4.8055  -4.7087  -4.6398  -4.6240  -4.5319  -4.4419  -4.3435
    -4.1703  -4.0764  -3.9788  -3.8393  -2.4728  -0.5344  -0.0784   0.6443
     1.1607   1.7437   2.5840   2.7972

          k = 0.1250-0.6495 0.0000 ( 19267 PWs)   bands (ev):

   -47.8542 -47.0284 -46.2187 -46.1720  -5.3101  -5.1479  -5.0893  -4.9895
    -4.8505  -4.7887  -4.6824  -4.6387  -4.5592  -4.5348  -4.4565  -4.4088
    -4.2590  -4.0793  -3.9224  -3.2123  -2.1727  -1.3145  -0.3372   0.4519
     0.6194   1.8393   2.2839   2.5348

          k = 0.1250-0.5052 0.0000 ( 19267 PWs)   bands (ev):

   -47.8542 -47.0284 -46.2187 -46.1720  -5.3090  -5.1254  -5.1128  -4.9830
    -4.8509  -4.7842  -4.6921  -4.6396  -4.5719  -4.5191  -4.4543  -4.4146
    -4.2577  -4.0825  -3.9241  -3.2073  -2.1742  -1.3142  -0.3466   0.4610
     0.6189   1.8350   2.2736   2.5497

          k = 0.1250-0.3608 0.0000 ( 19244 PWs)   bands (ev):

   -47.8542 -47.0284 -46.2189 -46.1719  -5.3256  -5.2103  -5.1626  -5.0734
    -4.9636  -4.8109  -4.7130  -4.6385  -4.6339  -4.5191  -4.4450  -4.3473
    -4.1680  -4.0832  -3.9770  -3.8448  -2.4654  -0.5455  -0.0791   0.6495
     1.1581   1.7378   2.5856   2.8090

          k = 0.1250-0.2165 0.0000 ( 19214 PWs)   bands (ev):

   -47.8542 -47.0284 -46.2191 -46.1717  -5.4219  -5.3046  -5.2395  -5.1523
    -5.0896  -4.9620  -4.7425  -4.7203  -4.6148  -4.5771  -4.5025  -4.2847
    -4.1155  -4.0832  -3.9703  -3.8408  -3.0367  -0.8237   0.7125   1.3370
     1.6060   2.3493   2.9602   3.1955

          k = 0.2500-0.1443 0.0000 ( 19227 PWs)   bands (ev):

   -47.8542 -47.0284 -46.2190 -46.1718  -5.3981  -5.2542  -5.2121  -5.1615
    -5.0160  -4.9432  -4.7708  -4.6442  -4.5993  -4.5668  -4.4892  -4.3081
    -4.1618  -4.0863  -3.9925  -3.8378  -2.8925  -0.6985   0.4683   0.9576
     1.8619   2.1340   2.4627   3.2802

          k = 0.2500 0.0000 0.0000 ( 19214 PWs)   bands (ev):

   -47.8542 -47.0284 -46.2191 -46.1717  -5.4219  -5.3046  -5.2395  -5.1523
    -5.0896  -4.9620  -4.7425  -4.7203  -4.6148  -4.5771  -4.5025  -4.2847
    -4.1155  -4.0832  -3.9703  -3.8408  -3.0367  -0.8237   0.7125   1.3370
     1.6060   2.3493   2.9602   3.1955

          k = 0.2500 0.1443 0.0000 ( 19227 PWs)   bands (ev):

   -47.8542 -47.0284 -46.2190 -46.1718  -5.4125  -5.2498  -5.2256  -5.1569
    -5.0097  -4.9356  -4.7667  -4.6412  -4.6058  -4.5770  -4.4820  -4.3041
    -4.1602  -4.0913  -3.9896  -3.8220  -2.9002  -0.6987   0.4659   0.9707
     1.8635   2.1332   2.4608   3.2731

          k = 0.2500 0.2887 0.0000 ( 19244 PWs)   bands (ev):

   -47.8542 -47.0284 -46.2189 -46.1719  -5.3312  -5.2271  -5.1488  -5.0726
    -4.9702  -4.8055  -4.7087  -4.6398  -4.6240  -4.5319  -4.4419  -4.3435
    -4.1703  -4.0764  -3.9788  -3.8393  -2.4728  -0.5344  -0.0784   0.6443
     1.1607   1.7437   2.5840   2.7972

          k = 0.2500-0.7217 0.0000 ( 19252 PWs)   bands (ev):

   -47.8542 -47.0284 -46.2187 -46.1719  -5.2292  -5.1692  -5.0530  -5.0038
    -4.9405  -4.7559  -4.6641  -4.6291  -4.6018  -4.5318  -4.4369  -4.4305
    -4.2129  -4.0715  -4.0316  -3.3454  -1.8964  -1.1725  -0.4947   0.4403
     0.9676   1.1948   2.0811   2.7781

          k = 0.2500-0.5774 0.0000 ( 19252 PWs)   bands (ev):

   -47.8541 -47.0283 -46.2186 -46.1720  -5.1985  -5.0847  -5.0339  -4.9780
    -4.8813  -4.8307  -4.6447  -4.6132  -4.5809  -4.5301  -4.5053  -4.3711
    -4.2383  -4.1486  -4.0566  -2.4308  -2.3859  -1.4892  -0.3001  -0.0109
     0.8389   1.1703   1.9446   2.8127

          k = 0.2500-0.4330 0.0000 ( 19252 PWs)   bands (ev):

   -47.8542 -47.0284 -46.2187 -46.1720  -5.2120  -5.1624  -5.0565  -5.0076
    -4.9399  -4.7539  -4.6656  -4.6373  -4.6086  -4.5329  -4.4434  -4.4227
    -4.2136  -4.0781  -4.0386  -3.3390  -1.8766  -1.2060  -0.4875   0.4420
     0.9670   1.1765   2.1085   2.7885

          k = 0.2500-0.2887 0.0000 ( 19244 PWs)   bands (ev):

   -47.8542 -47.0284 -46.2188 -46.1719  -5.3129  -5.2160  -5.1490  -5.0739
    -4.9781  -4.8137  -4.7147  -4.6368  -4.6289  -4.5240  -4.4459  -4.3448
    -4.1742  -4.0730  -3.9875  -3.8502  -2.4597  -0.5488  -0.0757   0.6437
     1.1370   1.7670   2.5814   2.8061

          k = 0.3750-0.2165 0.0000 ( 19265 PWs)   bands (ev):

   -47.8542 -47.0284 -46.2188 -46.1720  -5.3503  -5.1677  -5.1283  -5.0522
    -4.8466  -4.8412  -4.7400  -4.5949  -4.5707  -4.5538  -4.4837  -4.2871
    -4.2796  -4.0710  -3.8511  -3.7524  -2.2284  -1.1756  -0.0299   0.4774
     1.1286   1.7134   2.5366   3.4076

          k = 0.3750-0.0722 0.0000 ( 19244 PWs)   bands (ev):

   -47.8542 -47.0284 -46.2188 -46.1719  -5.3129  -5.2160  -5.1490  -5.0739
    -4.9781  -4.8137  -4.7147  -4.6368  -4.6289  -4.5240  -4.4459  -4.3448
    -4.1742  -4.0730  -3.9875  -3.8502  -2.4597  -0.5488  -0.0758   0.6436
     1.1370   1.7670   2.5814   2.8061

          k = 0.3750 0.0722 0.0000 ( 19244 PWs)   bands (ev):

   -47.8542 -47.0284 -46.2189 -46.1719  -5.3256  -5.2103  -5.1626  -5.0734
    -4.9636  -4.8109  -4.7130  -4.6385  -4.6339  -4.5191  -4.4450  -4.3473
    -4.1680  -4.0832  -3.9770  -3.8448  -2.4654  -0.5455  -0.0791   0.6495
     1.1581   1.7378   2.5856   2.8090

          k = 0.3750 0.2165 0.0000 ( 19265 PWs)   bands (ev):

   -47.8542 -47.0284 -46.2188 -46.1719  -5.3646  -5.1878  -5.1494  -5.0257
    -4.8375  -4.8338  -4.7379  -4.5998  -4.5678  -4.5436  -4.4845  -4.2940
    -4.2782  -4.0646  -3.8360  -3.7489  -2.2483  -1.1588  -0.0451   0.5143
     1.1311   1.6858   2.5308   3.2172

          k = 0.3750-0.7939 0.0000 ( 19267 PWs)   bands (ev):

   -47.8542 -47.0284 -46.2187 -46.1720  -5.3101  -5.1479  -5.0893  -4.9895
    -4.8505  -4.7887  -4.6824  -4.6387  -4.5592  -4.5348  -4.4565  -4.4088
    -4.2590  -4.0793  -3.9224  -3.2123  -2.1727  -1.3145  -0.3372   0.4519
     0.6194   1.8393   2.2839   2.5348

          k = 0.3750-0.6495 0.0000 ( 19252 PWs)   bands (ev):

   -47.8541 -47.0283 -46.2186 -46.1720  -5.1985  -5.0847  -5.0339  -4.9780
    -4.8813  -4.8307  -4.6447  -4.6132  -4.5809  -4.5301  -4.5053  -4.3711
    -4.2383  -4.1486  -4.0566  -2.4308  -2.3859  -1.4892  -0.3001  -0.0109
     0.8389   1.1703   1.9446   2.8127

          k = 0.3750-0.5052 0.0000 ( 19252 PWs)   bands (ev):

   -47.8541 -47.0283 -46.2186 -46.1720  -5.1819  -5.0864  -5.0207  -4.9930
    -4.8819  -4.8334  -4.6414  -4.6275  -4.5684  -4.5319  -4.5064  -4.3831
    -4.2363  -4.1421  -4.0686  -2.4229  -2.3789  -1.5070  -0.2868  -0.0176
     0.8272   1.1469   2.0053   2.7889

          k = 0.3750-0.3608 0.0000 ( 19267 PWs)   bands (ev):

   -47.8542 -47.0284 -46.2187 -46.1720  -5.2951  -5.1179  -5.0758  -5.0164
    -4.8601  -4.7887  -4.6850  -4.6473  -4.5626  -4.5407  -4.4614  -4.4016
    -4.2577  -4.0847  -3.9382  -3.2098  -2.1506  -1.3385  -0.3294   0.4564
     0.5765   1.8871   2.2853   2.5399

          k =-0.5000 0.2887 0.0000 ( 19296 PWs)   bands (ev):

   -47.8543 -47.0285 -46.2187 -46.1721  -5.3433  -5.1268  -5.0946  -4.9910
    -4.8459  -4.7471  -4.7380  -4.5866  -4.5747  -4.5277  -4.4701  -4.3730
    -4.3630  -4.0542  -3.8533  -2.8796  -2.6780  -1.0588  -0.8329   0.6054
     0.8656   1.7327   2.5150   3.2681

          k =-0.5000 0.4330 0.0000 ( 19267 PWs)   bands (ev):

   -47.8542 -47.0284 -46.2187 -46.1720  -5.2951  -5.1179  -5.0758  -5.0164
    -4.8601  -4.7887  -4.6850  -4.6473  -4.5626  -4.5407  -4.4614  -4.4016
    -4.2576  -4.0847  -3.9382  -3.2098  -2.1506  -1.3385  -0.3294   0.4564
     0.5765   1.8871   2.2853   2.5399

          k =-0.5000 0.5774 0.0000 ( 19252 PWs)   bands (ev):

   -47.8542 -47.0284 -46.2187 -46.1720  -5.2120  -5.1624  -5.0565  -5.0076
    -4.9399  -4.7539  -4.6656  -4.6373  -4.6086  -4.5329  -4.4434  -4.4227
    -4.2136  -4.0781  -4.0386  -3.3390  -1.8766  -1.2060  -0.4875   0.4420
     0.9670   1.1765   2.1085   2.7885

          k =-0.5000 0.7217 0.0000 ( 19267 PWs)   bands (ev):

   -47.8542 -47.0284 -46.2187 -46.1720  -5.3090  -5.1254  -5.1128  -4.9830
    -4.8509  -4.7842  -4.6921  -4.6396  -4.5719  -4.5191  -4.4543  -4.4146
    -4.2577  -4.0825  -3.9241  -3.2073  -2.1742  -1.3142  -0.3466   0.4610
     0.6188   1.8350   2.2736   2.5497

          k =-0.5000-0.2887 0.0000 ( 19296 PWs)   bands (ev):

   -47.8543 -47.0285 -46.2188 -46.1720  -5.3568  -5.1578  -5.1186  -4.9501
    -4.8466  -4.7437  -4.7323  -4.5892  -4.5569  -4.5177  -4.4611  -4.3937
    -4.3647  -4.0455  -3.8383  -2.8507  -2.7207  -1.0321  -0.8553   0.6569
     0.8685   1.6612   2.5184   3.0322

     the Fermi energy is    -0.1280 ev

!    total energy              =    -312.30369096 Ry
     estimated scf accuracy    <          4.5E-09 Ry
     smearing contrib. (-TS)   =       0.00043402 Ry
     internal energy E=F+TS    =    -312.30412498 Ry

     The total energy is F=E-TS. E is the sum of the following terms:
     one-electron contribution =   -1949.15300844 Ry
     hartree contribution      =     990.78902696 Ry
     xc contribution           =     -81.33400385 Ry
     ewald contribution        =     727.48040677 Ry
     DFT-D3 Dispersion         =      -0.08654642 Ry

     convergence has been achieved in   7 iterations

     negative rho (up, down):  1.958E-05 0.000E+00

     Forces acting on atoms (cartesian axes, Ry/au):

     atom    1 type  1   force =     0.00037299   -0.00021521    0.00007647
     atom    2 type  1   force =     0.00043128   -0.00024878   -0.00078661
     atom    3 type  1   force =     0.00036927   -0.00021354   -0.00022573
     atom    4 type  2   force =     0.00037589   -0.00021721    0.00078218
     atom    5 type  2   force =    -0.00081798    0.00047258    0.00004140
     atom    6 type  2   force =    -0.00088900    0.00051330    0.00046689
     atom    7 type  2   force =     0.00015755   -0.00009115   -0.00035461
     The non-local contrib.  to forces
     atom    1 type  1   force =     0.00031723   -0.00018317    0.02061982
     atom    2 type  1   force =    -0.00045076    0.00026110    0.02465691
     atom    3 type  1   force =     0.00004708   -0.00002713    0.03941279
     atom    4 type  2   force =    -0.00002244    0.00001279    0.01015567
     atom    5 type  2   force =    -0.00108139    0.00062453   -0.00721848
     atom    6 type  2   force =    -0.00033367    0.00019271   -0.05465311
     atom    7 type  2   force =     0.00072903   -0.00042165    0.04959194
     The ionic contribution  to forces
     atom    1 type  1   force =     0.03328583   -0.01921573   44.37940789
     atom    2 type  1   force =     0.06230292   -0.03593739    4.35049377
     atom    3 type  1   force =    -0.06716108    0.03875605  -46.42081975
     atom    4 type  2   force =    -0.02966765    0.01712442    5.02099768
     atom    5 type  2   force =    -0.02077445    0.01200187   -7.99304653
     atom    6 type  2   force =    -0.00249362    0.00144357  -16.88145288
     atom    7 type  2   force =     0.02450804   -0.01417279   17.54441983
     The local contribution  to forces
     atom    1 type  1   force =    -0.03305320    0.01908171  -44.39411247
     atom    2 type  1   force =    -0.06110578    0.03524569   -4.37694356
     atom    3 type  1   force =     0.06730201   -0.03883794   46.37684772
     atom    4 type  2   force =     0.03008168   -0.01736349   -5.02962300
     atom    5 type  2   force =     0.02095964   -0.01210862    7.99955538
     atom    6 type  2   force =     0.00190373   -0.00110306   16.93504186
     atom    7 type  2   force =    -0.02509836    0.01451413  -17.59306514
     The core correction contribution to forces
     atom    1 type  1   force =    -0.00002619    0.00001508   -0.00343617
     atom    2 type  1   force =    -0.00015270    0.00008810   -0.00038223
     atom    3 type  1   force =    -0.00001453    0.00000845    0.00375572
     atom    4 type  2   force =     0.00000000    0.00000000    0.00000000
     atom    5 type  2   force =     0.00000000    0.00000000    0.00000000
     atom    6 type  2   force =     0.00000000    0.00000000    0.00000000
     atom    7 type  2   force =     0.00000000    0.00000000    0.00000000
     The Hubbard contrib.    to forces
     atom    1 type  1   force =     0.00000000    0.00000000    0.00000000
     atom    2 type  1   force =     0.00000000    0.00000000    0.00000000
     atom    3 type  1   force =     0.00000000    0.00000000    0.00000000
     atom    4 type  2   force =     0.00000000    0.00000000    0.00000000
     atom    5 type  2   force =     0.00000000    0.00000000    0.00000000
     atom    6 type  2   force =     0.00000000    0.00000000    0.00000000
     atom    7 type  2   force =     0.00000000    0.00000000    0.00000000
     The SCF correction term to forces
     atom    1 type  1   force =    -0.00007865    0.00004531    0.00009973
     atom    2 type  1   force =     0.00001096   -0.00000637   -0.00015922
     atom    3 type  1   force =     0.00004715   -0.00002718   -0.00011188
     atom    4 type  2   force =     0.00000168   -0.00000096   -0.00002076
     atom    5 type  2   force =    -0.00000136    0.00000075   -0.00004398
     atom    6 type  2   force =     0.00000382   -0.00000217   -0.00002318
     atom    7 type  2   force =     0.00000253   -0.00000142    0.00003270

     DFT-D3 dispersion contribution to forces:
     atom    1 type  1   force =    -0.00007381    0.00004262   -0.00250560
     atom    2 type  1   force =    -0.00017515    0.00010112    0.00154445
     atom    3 type  1   force =     0.00014685   -0.00008476    0.00068640
     atom    4 type  2   force =    -0.00001917    0.00001106   -0.00073070
     atom    5 type  2   force =     0.00007780   -0.00004493    0.00079173
     atom    6 type  2   force =     0.00002895   -0.00001671    0.00155093
     atom    7 type  2   force =     0.00001453   -0.00000839   -0.00133721

     Total force =     0.002101     Total SCF correction =     0.000251
     SCF correction compared to forces is large: reduce conv_thr to get better values


     Computing stress (Cartesian axis) and pressure


     negative rho (up, down):  1.958E-05 0.000E+00
          total   stress  (Ry/bohr**3)                   (kbar)     P=       -8.95
  -0.00007525   0.00000120   0.00000293          -11.07        0.18        0.43
   0.00000120  -0.00007386  -0.00000169            0.18      -10.86       -0.25
   0.00000293  -0.00000169  -0.00003338            0.43       -0.25       -4.91

     Energy error            =      3.7E-05 Ry
     Gradient error          =      8.9E-04 Ry/Bohr

     bfgs converged in  38 scf cycles and  37 bfgs steps
     (criteria: energy <  1.0E-04 Ry, force <  1.0E-03 Ry/Bohr)

     End of BFGS Geometry Optimization

     Final energy             =    -312.3036909553 Ry

     File ./LiAg_mp-2426_111_bridge_2/LiAg_mp-2426_111_bridge_2.bfgs deleted, as requested
Begin final coordinates

ATOMIC_POSITIONS (angstrom)
Ag            0.9159367265        0.7460420942       14.5618525556
Ag            3.1399807380        2.0116908715       13.0175712035
Ag            5.4018990847        3.2554847233       10.9288693106
Li            5.3456339499        3.2879644411       13.4544582160
Li            0.9766952709        0.7109583698       11.7619125701
Li            3.2021999788        1.9757728912       10.0608193345
Li            3.0988084992       -0.5142147927       15.9807374150
End final coordinates



     Writing all to output data dir ./LiAg_mp-2426_111_bridge_2/LiAg_mp-2426_111_bridge_2.save/

     init_run     :      5.79s CPU      6.36s WALL (       1 calls)
     electrons    :     74.46s CPU     88.50s WALL (      38 calls)
     update_pot   :      8.61s CPU      9.12s WALL (      37 calls)
     forces       :      6.77s CPU      7.59s WALL (      38 calls)
     force_dftd3  :      0.24s CPU      0.40s WALL (      38 calls)
     stress       :     19.52s CPU     20.27s WALL (      38 calls)
     stres_dftd3  :      0.20s CPU      0.32s WALL (      38 calls)

     Called by init_run:
     wfcinit      :      0.23s CPU      0.48s WALL (       1 calls)
     potinit      :      0.89s CPU      0.93s WALL (       1 calls)
     hinit0       :      4.56s CPU      4.81s WALL (       1 calls)

     Called by electrons:
     c_bands      :     57.97s CPU     65.04s WALL (     288 calls)
     sum_band     :     10.56s CPU     12.35s WALL (     288 calls)
     v_of_rho     :      2.97s CPU      4.00s WALL (     308 calls)
     newd         :      1.68s CPU      1.80s WALL (     308 calls)
     mix_rho      :      0.36s CPU      0.37s WALL (     288 calls)
     energy_dftd3 :      0.05s CPU      0.06s WALL (      38 calls)

     Called by c_bands:
     init_us_2    :      0.54s CPU      0.59s WALL (    5877 calls)
     init_us_2:cp :      0.53s CPU      0.58s WALL (    5877 calls)
     cegterg      :     54.58s CPU     57.99s WALL (    2592 calls)

     Called by *egterg:
     cdiaghg      :     11.08s CPU     11.31s WALL (   10670 calls)
     h_psi        :     37.18s CPU     40.18s WALL (   11174 calls)
     s_psi        :      1.18s CPU      1.26s WALL (   11174 calls)
     g_psi        :      0.14s CPU      0.15s WALL (    8573 calls)

     Called by h_psi:
     h_psi:calbec :      2.32s CPU      2.68s WALL (   11174 calls)
     vloc_psi     :     33.56s CPU     36.11s WALL (   11174 calls)
     add_vuspsi   :      1.19s CPU      1.28s WALL (   11174 calls)

     General routines
     calbec       :      3.83s CPU      4.34s WALL (   15476 calls)
     fft          :      8.16s CPU      9.59s WALL (    4933 calls)
     ffts         :      0.99s CPU      1.63s WALL (     596 calls)
     fftw         :     35.38s CPU     38.02s WALL (  470090 calls)
     interpolate  :      1.04s CPU      1.35s WALL (     308 calls)

     Parallel routines

     PWSCF        :   1m56.23s CPU   2m14.92s WALL


   This run was terminated on:   7:32:28   6Aug2025            

=------------------------------------------------------------------------------=
   JOB DONE.
=------------------------------------------------------------------------------=
