
     Program PWSCF v.7.2 starts on  6Aug2025 at  7:22:11 

     This program is part of the open-source Quantum ESPRESSO suite
     for quantum simulation of materials; please cite
         "P. Giannozzi et al., J. Phys.:Condens. Matter 21 395502 (2009);
         "P. Giannozzi et al., J. Phys.:Condens. Matter 29 465901 (2017);
         "P. Giannozzi et al., J. Chem. Phys. 152 154105 (2020);
          URL http://www.quantum-espresso.org", 
     in publications or presentations arising from this work. More details at
     http://www.quantum-espresso.org/quote

     Parallel version (MPI & OpenMP), running on     256 processor cores
     Number of MPI processes:               256
     Threads/MPI process:                     1

     MPI processes distributed on     4 nodes
     241849 MiB available memory on the printing compute node when the environment starts

     Reading input from LiAg_mp-2426_110_bridge_0.in

     Current dimensions of program PWSCF are:
     Max number of different atomic species (ntypx) = 10
     Max number of k-points (npk) =  40000
     Max angular momentum in pseudopotentials (lmaxx) =  4
     Message from routine iosys:
     restart disabled: needed files not found

     K-points division:     npool     =       4
     R & G space division:  proc/nbgrp/npool/nimage =      64
     Subspace diagonalization in iterative solution of the eigenvalue problem:
     a serial algorithm will be used


     Parallelization info
     --------------------
     sticks:   dense  smooth     PW     G-vecs:    dense   smooth      PW
     Min          30      13      4                 8502     2473     376
     Max          31      14      5                 8541     2518     416
     Sum        1961     865    259               545233   159021   25681

     Using Slab Decomposition



     bravais-lattice index     =            0
     lattice parameter (alat)  =       5.9011  a.u.
     unit-cell volume          =    2888.7690 (a.u.)^3
     number of atoms/cell      =           13
     number of atomic types    =            2
     number of electrons       =        87.00
     number of Kohn-Sham states=           53
     kinetic-energy cutoff     =      55.0000  Ry
     charge density cutoff     =     500.0000  Ry
     scf convergence threshold =      1.0E-06
     mixing beta               =       0.3000
     number of iterations used =            8  plain     mixing
     energy convergence thresh.=      1.0E-04
     force convergence thresh. =      1.0E-03
     Exchange-correlation= PBE
                           (   1   4   3   4   0   0   0)
     nstep                     =          500


     celldm(1)=   5.901124  celldm(2)=   0.000000  celldm(3)=   0.000000
     celldm(4)=   0.000000  celldm(5)=   0.000000  celldm(6)=   0.000000

     crystal axes: (cart. coord. in units of alat)
               a(1) = (   1.000000   0.000000   0.000000 )  
               a(2) = (   0.000000   1.414214  -0.000000 )  
               a(3) = (   0.000000   0.000000   9.940165 )  

     reciprocal axes: (cart. coord. in units 2 pi/alat)
               b(1) = (  1.000000 -0.000000  0.000000 )  
               b(2) = (  0.000000  0.707107  0.000000 )  
               b(3) = ( -0.000000  0.000000  0.100602 )  


     PseudoPot. # 1 for Ag read from file:
     /home/ecastro/trabajo_final/pseudos/Ag.pbe-n-rrkjus_psl.1.0.0.UPF
     MD5 check sum: 81cdf87bacf708300839c66ee23ce017
     Pseudo is Ultrasoft + core correction, Zval = 11.0
     Generated using &quot;atomic&quot; code by A. Dal Corso  v.6.2.2
     Using radial grid of 1237 points,  6 beta functions with: 
                l(1) =   0
                l(2) =   0
                l(3) =   1
                l(4) =   1
                l(5) =   2
                l(6) =   2
     Q(r) pseudized with 0 coefficients 


     PseudoPot. # 2 for Li read from file:
     /home/ecastro/trabajo_final/pseudos/Li.pbe-s-rrkjus_psl.1.0.0.UPF
     MD5 check sum: 9f98d2529904d60b716d33989e9bc179
     Pseudo is Ultrasoft, Zval =  3.0
     Generated using &quot;atomic&quot; code by A. Dal Corso  v.6.3MaX
     Using radial grid of 1017 points,  4 beta functions with: 
                l(1) =   0
                l(2) =   0
                l(3) =   1
                l(4) =   1
     Q(r) pseudized with 0 coefficients 


     atomic species   valence    mass     pseudopotential
        Ag            11.00   107.86820     Ag( 1.00)
        Li             3.00     6.94100     Li( 1.00)

     No symmetry found



   Cartesian axes

     site n.     atom                  positions (alat units)
         1           Ag  tau(   1) = (   0.2499994   0.3535541   6.6750602  )
         2           Ag  tau(   2) = (   0.2499991   1.0606601   6.0303046  )
         3           Ag  tau(   3) = (   0.2500000   0.3535534   5.3236359  )
         4           Ag  tau(   4) = (   0.2500000   1.0606602   4.6165291  )
         5           Ag  tau(   5) = (   0.2500000   0.3535534   3.9094224  )
         6           Ag  tau(   6) = (   0.2500000   1.0606602   3.2023156  )
         7           Li  tau(   7) = (   0.7499996   1.0606612   6.7841830  )
         8           Li  tau(   8) = (   0.7499996   0.3535528   6.0076941  )
         9           Li  tau(   9) = (   0.7500000   1.0606602   5.3236359  )
        10           Li  tau(  10) = (   0.7500000   0.3535534   4.6165291  )
        11           Li  tau(  11) = (   0.7500000   1.0606602   3.9094224  )
        12           Li  tau(  12) = (   0.7500000   0.3535534   3.2023156  )
        13           Li  tau(  13) = (   0.9999995   0.0000009   7.4246461  )

     --------------------------------------------
     DFT-D3 Dispersion Correction (no 3-body):
     --------------------------------------------
       Reference C6 values for interpolation: 

         atom   Coordination number   C6
         Li         0.000          2326.89
         Li         0.987           170.64
         Ag         0.000           853.49
         Ag         0.968           537.23

       Values used:

         atom   Coordination number  R0_AB[au]  C6      C8
         Ag         8.892            3.147    537.23  47741.54
         Ag        10.344            3.147    537.23  47741.54
         Ag        10.198            3.147    537.23  47741.54
         Ag        10.144            3.147    537.23  47741.54
         Ag        10.124            3.147    537.23  47741.54
         Ag         7.371            3.147    537.23  47741.54
         Li         8.961            3.303    170.64  12899.87
         Li        11.061            3.303    170.64  12899.87
         Li        11.350            3.303    170.64  12899.87
         Li        11.222            3.303    170.64  12899.87
         Li        11.194            3.303    170.64  12899.87
         Li         8.083            3.303    170.64  12899.87
         Li         3.857            3.303    170.64  12899.87

         Molecular C6 ( Ry / a.u.^6 ) =     52003.73


     number of k points=    34  Methfessel-Paxton smearing, width (Ry)=  0.0300
                       cart. coord. in units 2pi/alat
        k(    1) = (   0.0000000   0.0000000   0.0000000), wk =   0.0312500
        k(    2) = (   0.0000000   0.0883883   0.0000000), wk =   0.0625000
        k(    3) = (   0.0000000   0.1767767   0.0000000), wk =   0.0625000
        k(    4) = (   0.0000000   0.2651650   0.0000000), wk =   0.0625000
        k(    5) = (   0.0000000  -0.3535534   0.0000000), wk =   0.0312500
        k(    6) = (   0.1250000  -0.0000000   0.0000000), wk =   0.0625000
        k(    7) = (   0.1250000   0.0883883   0.0000000), wk =   0.0625000
        k(    8) = (   0.1250000   0.1767767   0.0000000), wk =   0.0625000
        k(    9) = (   0.1250000   0.2651650   0.0000000), wk =   0.0625000
        k(   10) = (   0.1250000  -0.3535534   0.0000000), wk =   0.0625000
        k(   11) = (   0.1250000  -0.2651650   0.0000000), wk =   0.0625000
        k(   12) = (   0.1250000  -0.1767767   0.0000000), wk =   0.0625000
        k(   13) = (   0.1250000  -0.0883883   0.0000000), wk =   0.0625000
        k(   14) = (   0.2500000  -0.0000000   0.0000000), wk =   0.0625000
        k(   15) = (   0.2500000   0.0883883   0.0000000), wk =   0.0625000
        k(   16) = (   0.2500000   0.1767767   0.0000000), wk =   0.0625000
        k(   17) = (   0.2500000   0.2651650   0.0000000), wk =   0.0625000
        k(   18) = (   0.2500000  -0.3535534   0.0000000), wk =   0.0625000
        k(   19) = (   0.2500000  -0.2651650   0.0000000), wk =   0.0625000
        k(   20) = (   0.2500000  -0.1767767   0.0000000), wk =   0.0625000
        k(   21) = (   0.2500000  -0.0883883   0.0000000), wk =   0.0625000
        k(   22) = (   0.3750000  -0.0000000   0.0000000), wk =   0.0625000
        k(   23) = (   0.3750000   0.0883883   0.0000000), wk =   0.0625000
        k(   24) = (   0.3750000   0.1767767   0.0000000), wk =   0.0625000
        k(   25) = (   0.3750000   0.2651650   0.0000000), wk =   0.0625000
        k(   26) = (   0.3750000  -0.3535534   0.0000000), wk =   0.0625000
        k(   27) = (   0.3750000  -0.2651650   0.0000000), wk =   0.0625000
        k(   28) = (   0.3750000  -0.1767767   0.0000000), wk =   0.0625000
        k(   29) = (   0.3750000  -0.0883883   0.0000000), wk =   0.0625000
        k(   30) = (  -0.5000000   0.0000000   0.0000000), wk =   0.0312500
        k(   31) = (  -0.5000000   0.0883883   0.0000000), wk =   0.0625000
        k(   32) = (  -0.5000000   0.1767767   0.0000000), wk =   0.0625000
        k(   33) = (  -0.5000000   0.2651650   0.0000000), wk =   0.0625000
        k(   34) = (  -0.5000000  -0.3535534   0.0000000), wk =   0.0312500

     Dense  grid:   545233 G-vectors     FFT dimensions: (  45,  60, 432)

     Smooth grid:   159021 G-vectors     FFT dimensions: (  27,  40, 288)

     Estimated max dynamical RAM per process >      18.66 MB

     Estimated total dynamical RAM >       4.28 GB
     Cannot read rho : file not found

     Initial potential from superposition of free atoms

     starting charge      86.9653, renormalised to      87.0000

     negative rho (up, down):  4.907E-05 0.000E+00
     Message from routine qexsd_readschema :
     xml data file ./LiAg_mp-2426_110_bridge_0/LiAg_mp-2426_110_bridge_0.save/data-fi
     Cannot read wfcs: file not found
     Starting wfcs are   89 randomized atomic wfcs

     total cpu time spent up to now is        7.6 secs

     per-process dynamical memory:   177.3 Mb

     Self-consistent Calculation

     iteration #  1     ecut=    55.00 Ry     beta= 0.30
     Davidson diagonalization with overlap
     c_bands:  1 eigenvalues not converged
     c_bands:  1 eigenvalues not converged
     ethr =  1.00E-05,  avg # of iterations = 17.4

     negative rho (up, down):  4.067E-05 0.000E+00

     total cpu time spent up to now is       10.3 secs

     total energy              =    -609.42869939 Ry
     estimated scf accuracy    <       1.39901804 Ry

     iteration #  2     ecut=    55.00 Ry     beta= 0.30
     Davidson diagonalization with overlap
     ethr =  1.61E-03,  avg # of iterations =  8.0

     negative rho (up, down):  6.446E-05 0.000E+00

     total cpu time spent up to now is       11.4 secs

     total energy              =    -607.18326861 Ry
     estimated scf accuracy    <      66.44201788 Ry

     iteration #  3     ecut=    55.00 Ry     beta= 0.30
     Davidson diagonalization with overlap
     ethr =  1.61E-03,  avg # of iterations =  6.0

     negative rho (up, down):  6.816E-05 0.000E+00

     total cpu time spent up to now is       12.4 secs

     total energy              =    -609.66329282 Ry
     estimated scf accuracy    <      10.60610546 Ry

     iteration #  4     ecut=    55.00 Ry     beta= 0.30
     Davidson diagonalization with overlap
     ethr =  1.61E-03,  avg # of iterations =  2.6

     negative rho (up, down):  2.935E-05 0.000E+00

     total cpu time spent up to now is       13.0 secs

     total energy              =    -609.93272280 Ry
     estimated scf accuracy    <       0.99394270 Ry

     iteration #  5     ecut=    55.00 Ry     beta= 0.30
     Davidson diagonalization with overlap
     ethr =  1.14E-03,  avg # of iterations =  1.7

     negative rho (up, down):  1.386E-05 0.000E+00

     total cpu time spent up to now is       13.5 secs

     total energy              =    -609.94692071 Ry
     estimated scf accuracy    <       0.19054560 Ry

     iteration #  6     ecut=    55.00 Ry     beta= 0.30
     Davidson diagonalization with overlap
     ethr =  2.19E-04,  avg # of iterations =  5.1

     negative rho (up, down):  5.233E-06 0.000E+00

     total cpu time spent up to now is       14.3 secs

     total energy              =    -609.94355112 Ry
     estimated scf accuracy    <       0.07758932 Ry

     iteration #  7     ecut=    55.00 Ry     beta= 0.30
     Davidson diagonalization with overlap
     ethr =  8.92E-05,  avg # of iterations =  7.1

     negative rho (up, down):  2.871E-06 0.000E+00

     total cpu time spent up to now is       15.1 secs

     total energy              =    -609.94421864 Ry
     estimated scf accuracy    <       0.01800188 Ry

     iteration #  8     ecut=    55.00 Ry     beta= 0.30
     Davidson diagonalization with overlap
     ethr =  2.07E-05,  avg # of iterations =  7.1

     negative rho (up, down):  3.382E-06 0.000E+00

     total cpu time spent up to now is       16.0 secs

     total energy              =    -609.94454606 Ry
     estimated scf accuracy    <       0.00250164 Ry

     iteration #  9     ecut=    55.00 Ry     beta= 0.30
     Davidson diagonalization with overlap
     ethr =  2.88E-06,  avg # of iterations =  8.4

     negative rho (up, down):  6.557E-06 0.000E+00

     total cpu time spent up to now is       16.8 secs

     total energy              =    -609.94477656 Ry
     estimated scf accuracy    <       0.00038866 Ry

     iteration # 10     ecut=    55.00 Ry     beta= 0.30
     Davidson diagonalization with overlap
     ethr =  4.47E-07,  avg # of iterations =  2.1

     negative rho (up, down):  1.200E-05 0.000E+00

     total cpu time spent up to now is       17.4 secs

     total energy              =    -609.94482404 Ry
     estimated scf accuracy    <       0.00017786 Ry

     iteration # 11     ecut=    55.00 Ry     beta= 0.30
     Davidson diagonalization with overlap
     ethr =  2.04E-07,  avg # of iterations =  2.4

     negative rho (up, down):  1.095E-05 0.000E+00

     total cpu time spent up to now is       17.9 secs

     total energy              =    -609.94484232 Ry
     estimated scf accuracy    <       0.00002478 Ry

     iteration # 12     ecut=    55.00 Ry     beta= 0.30
     Davidson diagonalization with overlap
     ethr =  2.85E-08,  avg # of iterations =  3.2

     negative rho (up, down):  1.484E-05 0.000E+00

     total cpu time spent up to now is       18.5 secs

     total energy              =    -609.94484492 Ry
     estimated scf accuracy    <       0.00000451 Ry

     iteration # 13     ecut=    55.00 Ry     beta= 0.30
     Davidson diagonalization with overlap
     ethr =  5.19E-09,  avg # of iterations =  6.4

     negative rho (up, down):  1.554E-05 0.000E+00

     total cpu time spent up to now is       19.5 secs

     total energy              =    -609.94484603 Ry
     estimated scf accuracy    <       0.00000126 Ry

     iteration # 14     ecut=    55.00 Ry     beta= 0.30
     Davidson diagonalization with overlap
     ethr =  1.45E-09,  avg # of iterations =  2.0

     negative rho (up, down):  1.484E-05 0.000E+00

     total cpu time spent up to now is       20.0 secs

     End of self-consistent calculation

          k = 0.0000 0.0000 0.0000 ( 19753 PWs)   bands (ev):

   -45.7465 -44.4508 -44.2504 -43.9365 -43.8558 -43.8391 -43.7978  -4.2026
    -3.8149  -3.5294  -3.5142  -3.4947  -3.4665  -3.3704  -3.3120  -3.3023
    -3.2872  -3.1423  -3.1121  -3.0048  -2.9658  -2.9155  -2.5029  -2.4573
    -2.4523  -2.3872  -2.3812  -2.3135  -2.2898  -2.2768  -2.1860  -2.1767
    -2.1507  -2.0642  -2.0490  -2.0379  -2.0126  -2.0021  -1.9751  -1.6656
    -1.5058  -0.3497   0.7361   1.7901   2.2177   2.4711   2.9956   4.0679
     4.7123   5.1127   5.2745   5.3807   5.7154

          k = 0.0000 0.0884 0.0000 ( 19735 PWs)   bands (ev):

   -45.7465 -44.4507 -44.2504 -43.9364 -43.8557 -43.8390 -43.7977  -4.1113
    -3.7947  -3.5126  -3.4898  -3.4661  -3.4564  -3.3317  -3.3099  -3.2965
    -3.2527  -3.1548  -3.1334  -2.9890  -2.9218  -2.8578  -2.5500  -2.4838
    -2.4702  -2.4132  -2.3787  -2.3105  -2.2812  -2.2338  -2.1933  -2.1752
    -2.1610  -2.1437  -2.0902  -2.0536  -2.0206  -2.0040  -1.9679  -1.7978
    -1.2740  -0.1673   0.8669   1.4710   2.0902   2.2993   2.6941   3.3583
     4.4280   4.9271   5.3048   5.3661   5.7294

          k = 0.0000 0.1768 0.0000 ( 19834 PWs)   bands (ev):

   -45.7466 -44.4508 -44.2504 -43.9365 -43.8556 -43.8392 -43.7979  -3.8818
    -3.7327  -3.5318  -3.4393  -3.4134  -3.3579  -3.3052  -3.2757  -3.2579
    -3.1992  -3.1755  -3.1078  -2.8962  -2.8651  -2.7722  -2.5311  -2.5280
    -2.5171  -2.4410  -2.4150  -2.3661  -2.3069  -2.2973  -2.2872  -2.2538
    -2.1708  -2.1574  -2.1413  -2.0403  -2.0013  -1.9878  -1.9539  -1.7554
    -0.7936   0.1962   0.2642   1.0757   1.6350   2.0312   2.6032   2.9822
     3.2982   4.1678   5.2307   5.3273   5.7640

          k = 0.0000 0.2652 0.0000 ( 19874 PWs)   bands (ev):

   -45.7467 -44.4508 -44.2504 -43.9364 -43.8555 -43.8392 -43.7980  -3.6646
    -3.6494  -3.5308  -3.4154  -3.3796  -3.3513  -3.2822  -3.2626  -3.2121
    -3.1826  -3.0763  -2.9220  -2.8563  -2.8094  -2.6917  -2.5712  -2.5550
    -2.5447  -2.5045  -2.4662  -2.4467  -2.4289  -2.3303  -2.3000  -2.2897
    -2.1723  -2.1190  -2.0309  -2.0065  -1.9831  -1.9680  -1.9421  -1.1931
    -0.8847  -0.2332  -0.1221   0.9008   1.1627   1.9205   2.2408   2.9194
     3.3260   3.7585   4.2198   5.3906   5.8601

          k = 0.0000-0.3536 0.0000 ( 19864 PWs)   bands (ev):

   -45.7466 -44.4507 -44.2504 -43.9364 -43.8554 -43.8392 -43.7980  -3.6002
    -3.5936  -3.4992  -3.4557  -3.3598  -3.3364  -3.3189  -3.2756  -3.1877
    -3.1740  -2.9274  -2.8974  -2.8016  -2.7419  -2.7002  -2.6410  -2.6062
    -2.5842  -2.5695  -2.4865  -2.4774  -2.4580  -2.3293  -2.3172  -2.1583
    -2.1234  -2.0256  -1.9787  -1.9644  -1.9364  -1.8938  -1.8360  -1.2418
    -1.1651  -0.3524  -0.2701   0.8719   0.9342   1.9606   2.0380   2.8740
     3.2069   3.9326   4.3379   4.7811   5.3396

          k = 0.1250-0.0000 0.0000 ( 19806 PWs)   bands (ev):

   -45.7459 -44.4501 -44.2497 -43.9358 -43.8550 -43.8384 -43.7970  -3.9998
    -3.5721  -3.5125  -3.4680  -3.3849  -3.3098  -3.2862  -3.2744  -3.2440
    -3.0937  -3.0003  -2.9519  -2.9389  -2.9082  -2.9006  -2.6617  -2.6460
    -2.6259  -2.5560  -2.4653  -2.4262  -2.3873  -2.3092  -2.2597  -2.1890
    -2.1616  -2.1574  -2.1136  -2.1036  -2.0772  -2.0347  -1.9589  -1.6465
    -1.2781  -0.0965   1.0159   2.1041   2.6471   2.8025   3.4019   4.4408
     4.9173   5.3271   5.5004   5.7103   5.9161

          k = 0.1250 0.0884 0.0000 ( 19853 PWs)   bands (ev):

   -45.7460 -44.4501 -44.2498 -43.9358 -43.8550 -43.8384 -43.7971  -3.9024
    -3.5864  -3.4591  -3.3890  -3.3672  -3.3168  -3.2753  -3.2406  -3.2236
    -3.1013  -2.9767  -2.9538  -2.9259  -2.9125  -2.8540  -2.6821  -2.6627
    -2.6215  -2.5869  -2.4881  -2.4485  -2.3914  -2.3058  -2.2444  -2.2017
    -2.1631  -2.1365  -2.1238  -2.0969  -2.0708  -2.0648  -1.9989  -1.7597
    -1.0767   0.0643   1.1255   1.8007   2.4452   2.6629   3.0022   3.6519
     4.6637   5.1541   5.5282   5.6021   5.9320

          k = 0.1250 0.1768 0.0000 ( 19851 PWs)   bands (ev):

   -45.7459 -44.4500 -44.2497 -43.9357 -43.8548 -43.8384 -43.7971  -3.6625
    -3.5472  -3.3591  -3.3111  -3.2978  -3.2888  -3.2393  -3.1964  -3.1222
    -3.0974  -2.9969  -2.9773  -2.8818  -2.8553  -2.7783  -2.7169  -2.6923
    -2.6267  -2.6206  -2.4926  -2.4681  -2.3911  -2.3325  -2.2779  -2.2523
    -2.2202  -2.1794  -2.1385  -2.1195  -2.0725  -2.0618  -2.0466  -1.6201
    -0.6214   0.3974   0.5236   1.3249   1.9375   2.2929   2.8916   3.2524
     3.5322   4.3573   5.4221   5.5431   5.9991

          k = 0.1250 0.2652 0.0000 ( 19897 PWs)   bands (ev):

   -45.7460 -44.4500 -44.2497 -43.9357 -43.8547 -43.8385 -43.7972  -3.4790
    -3.4659  -3.3193  -3.2595  -3.2289  -3.2136  -3.1693  -3.1531  -3.0706
    -3.0674  -3.0149  -2.9107  -2.8474  -2.8062  -2.7520  -2.7382  -2.6694
    -2.6631  -2.6330  -2.5353  -2.4933  -2.4351  -2.4064  -2.3766  -2.3066
    -2.2223  -2.1728  -2.1266  -2.0738  -2.0486  -2.0371  -1.8395  -1.0439
    -0.6504  -0.0637   0.0242   1.1174   1.4080   2.1113   2.4686   3.1314
     3.5562   4.0583   4.4249   5.5827   6.0920

          k = 0.1250-0.3536 0.0000 ( 19884 PWs)   bands (ev):

   -45.7460 -44.4500 -44.2497 -43.9356 -43.8546 -43.8384 -43.7972  -3.4369
    -3.4140  -3.2666  -3.2513  -3.2303  -3.1991  -3.1602  -3.1471  -3.1167
    -3.0287  -2.9164  -2.8889  -2.8030  -2.7700  -2.7514  -2.7505  -2.6788
    -2.6644  -2.6284  -2.5955  -2.5817  -2.4732  -2.4501  -2.4357  -2.2794
    -2.2238  -2.1238  -2.0679  -2.0560  -2.0271  -1.6790  -1.6272  -1.0768
    -0.9985  -0.2189  -0.1339   1.0703   1.1583   2.1492   2.2330   3.0897
     3.4101   4.1551   4.6067   5.0627   5.5947

          k = 0.1250-0.2652 0.0000 ( 19897 PWs)   bands (ev):

   -45.7460 -44.4500 -44.2497 -43.9357 -43.8547 -43.8385 -43.7972  -3.4791
    -3.4660  -3.3197  -3.2596  -3.2288  -3.2147  -3.1691  -3.1531  -3.0706
    -3.0662  -3.0149  -2.9097  -2.8488  -2.8069  -2.7512  -2.7387  -2.6699
    -2.6651  -2.6342  -2.5295  -2.4936  -2.4352  -2.4052  -2.3777  -2.3078
    -2.2214  -2.1715  -2.1274  -2.0754  -2.0488  -2.0369  -1.8371  -1.0417
    -0.6519  -0.0651   0.0257   1.1154   1.4197   2.1059   2.4830   3.1112
     3.5497   4.0439   4.4174   5.5808   6.1068

          k = 0.1250-0.1768 0.0000 ( 19851 PWs)   bands (ev):

   -45.7459 -44.4500 -44.2497 -43.9357 -43.8548 -43.8384 -43.7971  -3.6626
    -3.5475  -3.3595  -3.3110  -3.2978  -3.2894  -3.2392  -3.1966  -3.1225
    -3.0975  -2.9958  -2.9773  -2.8823  -2.8559  -2.7778  -2.7173  -2.6921
    -2.6308  -2.6205  -2.4925  -2.4570  -2.3930  -2.3278  -2.2814  -2.2532
    -2.2213  -2.1815  -2.1340  -2.1257  -2.0733  -2.0608  -2.0460  -1.6185
    -0.6189   0.4028   0.5231   1.3236   1.9449   2.2868   2.8939   3.2471
     3.5291   4.3345   5.3830   5.5546   6.0005

          k = 0.1250-0.0884 0.0000 ( 19853 PWs)   bands (ev):

   -45.7460 -44.4501 -44.2498 -43.9358 -43.8550 -43.8384 -43.7971  -3.9025
    -3.5866  -3.4590  -3.3890  -3.3672  -3.3171  -3.2750  -3.2410  -3.2235
    -3.1014  -2.9770  -2.9540  -2.9255  -2.9123  -2.8541  -2.6822  -2.6628
    -2.6245  -2.5876  -2.4769  -2.4492  -2.3924  -2.3094  -2.2450  -2.2005
    -2.1615  -2.1385  -2.1205  -2.1008  -2.0712  -2.0660  -1.9973  -1.7601
    -1.0756   0.0683   1.1307   1.7950   2.4456   2.6572   3.0029   3.6527
     4.6581   5.1528   5.5065   5.6031   5.9362

          k = 0.2500-0.0000 0.0000 ( 19968 PWs)   bands (ev):

   -45.7446 -44.4485 -44.2482 -43.9341 -43.8533 -43.8367 -43.7953  -3.7109
    -3.5048  -3.4040  -3.3263  -3.2824  -3.2170  -3.0715  -3.0665  -3.0401
    -2.9737  -2.9578  -2.9338  -2.9212  -2.8638  -2.8214  -2.7630  -2.7047
    -2.5645  -2.5066  -2.4521  -2.4185  -2.3954  -2.3720  -2.3627  -2.3361
    -2.2973  -2.2908  -2.2464  -2.0996  -2.0305  -1.9133  -1.6675  -1.6142
    -0.6462   0.5859   1.7479   2.8962   3.6630   3.8408   4.4816   5.1402
     5.3878   5.4637   5.5395   5.8691   6.0436

          k = 0.2500 0.0884 0.0000 ( 19915 PWs)   bands (ev):

   -45.7445 -44.4484 -44.2480 -43.9339 -43.8532 -43.8366 -43.7952  -3.6249
    -3.4466  -3.4203  -3.2627  -3.2285  -3.2045  -3.0842  -3.0714  -3.0253
    -2.9858  -2.9457  -2.9249  -2.8727  -2.8404  -2.8220  -2.7723  -2.6924
    -2.5625  -2.5081  -2.4742  -2.4440  -2.3915  -2.3446  -2.3418  -2.3245
    -2.2943  -2.2718  -2.2344  -2.1158  -2.0667  -1.9859  -1.7422  -1.5385
    -0.5010   0.7077   1.8231   2.6235   3.3495   3.5702   3.8746   4.3353
     4.9810   5.1719   5.3440   5.7751   6.2821

          k = 0.2500 0.1768 0.0000 ( 19923 PWs)   bands (ev):

   -45.7444 -44.4483 -44.2480 -43.9339 -43.8530 -43.8366 -43.7953  -3.4419
    -3.3790  -3.2838  -3.1865  -3.1650  -3.1227  -3.1006  -3.0476  -3.0239
    -3.0010  -2.9104  -2.8998  -2.8397  -2.8138  -2.7616  -2.7506  -2.6677
    -2.5872  -2.5283  -2.4704  -2.4636  -2.4035  -2.3426  -2.3126  -2.2771
    -2.2664  -2.2407  -2.2116  -2.1829  -2.1538  -1.9926  -1.9301  -1.1992
    -0.1192   0.9632   1.2372   1.9719   2.6630   2.9034   3.6181   3.7431
     4.3271   4.5654   5.1969   5.9352   6.1315

          k = 0.2500 0.2652 0.0000 ( 19896 PWs)   bands (ev):

   -45.7444 -44.4482 -44.2479 -43.9337 -43.8528 -43.8366 -43.7953  -3.3167
    -3.2988  -3.1407  -3.1294  -3.1193  -3.0931  -3.0757  -3.0236  -3.0080
    -2.9153  -2.8952  -2.8666  -2.8289  -2.7664  -2.7218  -2.6485  -2.6332
    -2.6101  -2.5502  -2.4940  -2.4706  -2.4392  -2.4099  -2.3603  -2.3470
    -2.3144  -2.2715  -2.2432  -2.2389  -2.2126  -1.8103  -1.4120  -0.6150
    -0.0115   0.3850   0.5004   1.6359   2.0006   2.5563   3.0389   3.5607
     4.1611   4.6568   4.9917   5.6632   6.5796

          k = 0.2500-0.3536 0.0000 ( 19900 PWs)   bands (ev):

   -45.7443 -44.4482 -44.2479 -43.9337 -43.8527 -43.8366 -43.7953  -3.2772
    -3.2516  -3.1367  -3.1286  -3.1059  -3.0733  -3.0481  -3.0347  -2.9498
    -2.9359  -2.8428  -2.8207  -2.7557  -2.7194  -2.6525  -2.6389  -2.6269
    -2.5939  -2.5917  -2.5510  -2.5406  -2.4656  -2.4418  -2.4261  -2.4101
    -2.3485  -2.3153  -2.2536  -2.2375  -2.2155  -1.1084  -1.0547  -0.6080
    -0.5159   0.1597   0.2627   1.5369   1.6828   2.5991   2.7354   3.5814
     3.9164   4.6464   5.1549   5.8287   6.3018

          k = 0.2500-0.2652 0.0000 ( 19896 PWs)   bands (ev):

   -45.7444 -44.4482 -44.2479 -43.9337 -43.8528 -43.8366 -43.7953  -3.3166
    -3.2988  -3.1403  -3.1282  -3.1211  -3.0923  -3.0773  -3.0235  -3.0074
    -2.9186  -2.8962  -2.8659  -2.8283  -2.7660  -2.7203  -2.6499  -2.6309
    -2.6069  -2.5486  -2.4919  -2.4714  -2.4391  -2.4111  -2.3601  -2.3513
    -2.3183  -2.2716  -2.2437  -2.2396  -2.2113  -1.8086  -1.4083  -0.6125
    -0.0127   0.3880   0.4991   1.6374   2.0264   2.5503   3.0859   3.5181
     4.1324   4.5807   4.9833   5.5610   6.7117

          k = 0.2500-0.1768 0.0000 ( 19923 PWs)   bands (ev):

   -45.7444 -44.4483 -44.2480 -43.9339 -43.8530 -43.8366 -43.7953  -3.4417
    -3.3791  -3.2838  -3.1874  -3.1641  -3.1238  -3.1010  -3.0471  -3.0237
    -3.0018  -2.9139  -2.9014  -2.8359  -2.8129  -2.7633  -2.7514  -2.6651
    -2.5831  -2.5252  -2.4752  -2.4589  -2.4032  -2.3486  -2.3134  -2.2772
    -2.2660  -2.2423  -2.2142  -2.1816  -2.1534  -1.9925  -1.9271  -1.1970
    -0.1154   0.9772   1.2375   1.9713   2.6839   2.8997   3.6153   3.7585
     4.3202   4.5493   5.1638   5.5145   6.2378

          k = 0.2500-0.0884 0.0000 ( 19915 PWs)   bands (ev):

   -45.7445 -44.4484 -44.2480 -43.9339 -43.8532 -43.8366 -43.7952  -3.6248
    -3.4466  -3.4205  -3.2621  -3.2291  -3.2050  -3.0836  -3.0715  -3.0266
    -2.9859  -2.9450  -2.9268  -2.8764  -2.8360  -2.8216  -2.7731  -2.6919
    -2.5592  -2.5045  -2.4749  -2.4480  -2.3909  -2.3458  -2.3414  -2.3247
    -2.2936  -2.2714  -2.2357  -2.1155  -2.0665  -1.9862  -1.7428  -1.5374
    -0.4992   0.7169   1.8359   2.6078   3.3484   3.5685   3.8709   4.3628
     5.0403   5.1835   5.3518   5.6389   6.0140

          k = 0.3750-0.0000 0.0000 ( 19934 PWs)   bands (ev):

   -45.7429 -44.4465 -44.2462 -43.9320 -43.8513 -43.8346 -43.7932  -3.5837
    -3.4911  -3.3949  -3.3927  -3.3355  -3.2768  -3.2695  -3.2605  -3.2089
    -3.1444  -3.1005  -3.0709  -2.9324  -2.8648  -2.8196  -2.7794  -2.7586
    -2.6309  -2.6126  -2.5296  -2.5195  -2.3176  -2.2856  -2.1359  -2.0643
    -2.0067  -1.8811  -1.8496  -1.7797  -1.6000  -1.3057  -0.9932  -0.4198
     0.5176   1.6802   2.7061   2.8141   3.1260   3.6693   4.0908   4.5652
     5.0503   5.3562   5.4258   5.9939   6.2075

          k = 0.3750 0.0884 0.0000 ( 19943 PWs)   bands (ev):

   -45.7429 -44.4465 -44.2462 -43.9320 -43.8512 -43.8346 -43.7933  -3.5081
    -3.4316  -3.4021  -3.3895  -3.3377  -3.2900  -3.2517  -3.2189  -3.1585
    -3.1275  -3.1105  -3.0602  -2.8913  -2.8587  -2.8108  -2.7440  -2.7143
    -2.6454  -2.5690  -2.5286  -2.4968  -2.4072  -2.2159  -2.1632  -2.1150
    -2.0443  -1.8815  -1.8595  -1.7730  -1.6646  -1.2387  -0.9431  -0.3591
     0.6024   1.7620   2.7732   2.8707   3.1484   3.5999   3.8524   4.2098
     4.4360   4.5819   5.2237   5.8726   6.5047

          k = 0.3750 0.1768 0.0000 ( 19944 PWs)   bands (ev):

   -45.7428 -44.4465 -44.2462 -43.9320 -43.8511 -43.8347 -43.7934  -3.4128
    -3.4081  -3.3442  -3.3051  -3.2824  -3.2694  -3.2480  -3.1225  -3.1036
    -3.0830  -3.0651  -3.0203  -2.8509  -2.8079  -2.7448  -2.7080  -2.6347
    -2.5957  -2.5408  -2.4918  -2.4597  -2.4218  -2.2792  -2.2100  -2.1778
    -2.1349  -1.9520  -1.8631  -1.7946  -1.7507  -1.0258  -0.7544  -0.1432
     0.8566   1.9541   2.3921   2.8276   3.0346   3.1540   3.2321   3.4226
     3.5621   4.5063   5.6053   5.7814   5.9299

          k = 0.3750 0.2652 0.0000 ( 19919 PWs)   bands (ev):

   -45.7428 -44.4465 -44.2462 -43.9319 -43.8509 -43.8347 -43.7934  -3.4232
    -3.4175  -3.3063  -3.2916  -3.2137  -3.1931  -3.1359  -3.0812  -3.0529
    -3.0005  -2.9812  -2.8605  -2.8199  -2.7674  -2.6831  -2.6485  -2.5863
    -2.5575  -2.5304  -2.4412  -2.4313  -2.4002  -2.3812  -2.3326  -2.2411
    -2.1810  -1.9450  -1.9222  -1.8209  -1.8069  -0.6140  -0.3267   0.3046
     1.1142   1.2371   1.4552   2.2015   2.5914   2.8094   3.1937   3.4158
     3.6300   4.4808   5.2455   5.7330   6.0279

          k = 0.3750-0.3536 0.0000 ( 19954 PWs)   bands (ev):

   -45.7428 -44.4465 -44.2462 -43.9320 -43.8509 -43.8348 -43.7935  -3.4270
    -3.4226  -3.3082  -3.2972  -3.1644  -3.1455  -3.1285  -3.1052  -2.9997
    -2.9890  -2.8214  -2.8087  -2.7818  -2.7187  -2.6743  -2.6231  -2.5941
    -2.5400  -2.5257  -2.5023  -2.4915  -2.4372  -2.3941  -2.3773  -2.1908
    -2.1473  -1.9607  -1.9188  -1.8582  -1.8348   0.0639   0.1075   0.3787
     0.4706   0.9439   1.0736   2.0333   2.1811   2.9200   3.0856   3.6779
     3.8230   4.1203   4.9065   5.7490   5.9180

          k = 0.3750-0.2652 0.0000 ( 19919 PWs)   bands (ev):

   -45.7428 -44.4465 -44.2462 -43.9319 -43.8509 -43.8347 -43.7934  -3.4232
    -3.4176  -3.3063  -3.2916  -3.2137  -3.1930  -3.1358  -3.0826  -3.0537
    -3.0017  -2.9809  -2.8581  -2.8193  -2.7640  -2.6853  -2.6488  -2.5863
    -2.5579  -2.5307  -2.4405  -2.4280  -2.4038  -2.3818  -2.3325  -2.2410
    -2.1815  -1.9448  -1.9232  -1.8210  -1.8073  -0.6136  -0.3268   0.3019
     1.1185   1.2390   1.4602   2.2256   2.6315   2.8232   3.2294   3.4282
     3.6395   4.2284   4.8828   5.9936   6.0379

          k = 0.3750-0.1768 0.0000 ( 19944 PWs)   bands (ev):

   -45.7428 -44.4465 -44.2462 -43.9320 -43.8511 -43.8347 -43.7934  -3.4127
    -3.4081  -3.3438  -3.3055  -3.2835  -3.2698  -3.2471  -3.1215  -3.1023
    -3.0870  -3.0658  -3.0206  -2.8467  -2.8065  -2.7451  -2.7065  -2.6359
    -2.5968  -2.5411  -2.4917  -2.4579  -2.4230  -2.2809  -2.2099  -2.1778
    -2.1346  -1.9530  -1.8630  -1.7952  -1.7507  -1.0252  -0.7538  -0.1442
     0.8589   1.9931   2.3993   2.8581   3.0421   3.1685   3.2771   3.4167
     3.5581   4.4336   4.8843   5.6591   6.3777

          k = 0.3750-0.0884 0.0000 ( 19943 PWs)   bands (ev):

   -45.7429 -44.4465 -44.2462 -43.9320 -43.8512 -43.8346 -43.7933  -3.5079
    -3.4321  -3.4019  -3.3894  -3.3379  -3.2904  -3.2523  -3.2178  -3.1572
    -3.1274  -3.1129  -3.0613  -2.8888  -2.8605  -2.8059  -2.7452  -2.7139
    -2.6470  -2.5691  -2.5282  -2.4970  -2.4078  -2.2161  -2.1635  -2.1148
    -2.0443  -1.8815  -1.8599  -1.7732  -1.6650  -1.2383  -0.9427  -0.3594
     0.6038   1.7818   2.7918   2.8889   3.1463   3.5842   3.8427   4.2373
     4.4764   4.6128   5.1314   5.3469   6.6624

          k =-0.5000 0.0000 0.0000 ( 19974 PWs)   bands (ev):

   -45.7423 -44.4458 -44.2455 -43.9313 -43.8505 -43.8338 -43.7924  -3.5467
    -3.5152  -3.5089  -3.4820  -3.3794  -3.3641  -3.3052  -3.2641  -3.1805
    -3.1643  -3.1576  -3.1030  -2.9416  -2.9186  -2.9116  -2.7657  -2.7482
    -2.7165  -2.6994  -2.6082  -2.5982  -2.3031  -2.2355  -2.1098  -1.9964
    -1.9283  -1.8633  -1.6365  -1.5912  -1.5238   0.3550   0.5769   0.7121
     1.0321   1.1643   1.7640   1.9227   2.7023   3.0584   3.6973   4.4013
     4.8900   5.5695   5.7548   6.4559   6.6426

          k =-0.5000 0.0884 0.0000 ( 19948 PWs)   bands (ev):

   -45.7422 -44.4458 -44.2455 -43.9312 -43.8504 -43.8338 -43.7924  -3.5212
    -3.5092  -3.4737  -3.4151  -3.3944  -3.3569  -3.3040  -3.2085  -3.1996
    -3.1453  -3.1146  -3.0790  -2.9574  -2.8879  -2.8659  -2.7355  -2.7296
    -2.6886  -2.6536  -2.6060  -2.5714  -2.3928  -2.1605  -2.1260  -2.0624
    -2.0274  -1.7684  -1.7314  -1.5566  -1.5329   0.3902   0.6116   0.8279
     1.0782   1.2285   1.8179   1.9389   2.7043   3.0703   3.6554   4.3320
     4.7930   5.3268   5.4855   5.7971   6.1542

          k =-0.5000 0.1768 0.0000 ( 19956 PWs)   bands (ev):

   -45.7422 -44.4458 -44.2455 -43.9312 -43.8503 -43.8339 -43.7926  -3.5263
    -3.5197  -3.4048  -3.3731  -3.3098  -3.2474  -3.2375  -3.1906  -3.1731
    -3.0706  -3.0318  -2.9936  -2.9339  -2.8948  -2.7276  -2.6928  -2.6717
    -2.6245  -2.5942  -2.5617  -2.5274  -2.4112  -2.2352  -2.1896  -2.1497
    -2.0803  -1.8712  -1.6596  -1.5827  -1.5358   0.5221   0.7428   1.1632
     1.2338   1.4267   1.8962   2.0633   2.6125   3.0890   3.4212   3.7622
     3.9535   4.3174   4.9276   5.2507   5.5361

          k =-0.5000 0.2652 0.0000 ( 19924 PWs)   bands (ev):

   -45.7421 -44.4457 -44.2454 -43.9311 -43.8501 -43.8339 -43.7926  -3.5337
    -3.5276  -3.4081  -3.3913  -3.2181  -3.1717  -3.1596  -3.1483  -3.0244
    -2.9706  -2.9473  -2.9283  -2.8562  -2.8111  -2.6643  -2.6560  -2.6084
    -2.6020  -2.5632  -2.5051  -2.4937  -2.3930  -2.3624  -2.3137  -2.1994
    -2.0870  -1.7609  -1.7377  -1.5830  -1.5567   0.8295   1.0546   1.5423
     1.6866   1.7676   1.9644   2.2167   2.3874   2.4228   2.6437   2.8773
     3.2257   3.6225   4.5693   4.8483   5.3135

          k =-0.5000-0.3536 0.0000 ( 19904 PWs)   bands (ev):

   -45.7420 -44.4457 -44.2454 -43.9311 -43.8500 -43.8339 -43.7926  -3.5358
    -3.5321  -3.4091  -3.3975  -3.2075  -3.1869  -3.1151  -3.1008  -2.9463
    -2.9279  -2.9165  -2.8649  -2.7874  -2.7150  -2.6782  -2.6520  -2.6066
    -2.5807  -2.5339  -2.5097  -2.5056  -2.4709  -2.4628  -2.3589  -2.0872
    -2.0348  -1.7846  -1.7425  -1.5855  -1.5699   1.4095   1.4374   1.6408
     1.6684   1.9301   2.0397   2.1205   2.1324   2.2052   2.3622   2.4014
     2.5863   3.4385   4.4834   4.6719   5.3320

     the Fermi energy is     1.9304 ev

!    total energy              =    -609.94484598 Ry
     estimated scf accuracy    <       0.00000035 Ry
     smearing contrib. (-TS)   =      -0.00190124 Ry
     internal energy E=F+TS    =    -609.94294475 Ry

     The total energy is F=E-TS. E is the sum of the following terms:
     one-electron contribution =   -6073.90856635 Ry
     hartree contribution      =    3077.31413912 Ry
     xc contribution           =    -159.35855348 Ry
     ewald contribution        =    2546.24186857 Ry
     DFT-D3 Dispersion         =      -0.23183260 Ry

     convergence has been achieved in  14 iterations

     negative rho (up, down):  1.484E-05 0.000E+00

     Forces acting on atoms (cartesian axes, Ry/au):

     atom    1 type  1   force =     0.00469838   -0.00009515    0.01293904
     atom    2 type  1   force =    -0.00022669   -0.00107155    0.00220771
     atom    3 type  1   force =    -0.00001524   -0.00047206   -0.00367949
     atom    4 type  1   force =     0.00003921   -0.00028083    0.00106413
     atom    5 type  1   force =    -0.00003906   -0.00002477    0.00408449
     atom    6 type  1   force =     0.00000284   -0.00004688    0.00920147
     atom    7 type  2   force =    -0.00774391   -0.01249676   -0.01960808
     atom    8 type  2   force =    -0.00002179    0.00007490   -0.00293958
     atom    9 type  2   force =     0.00016372    0.00015551   -0.00062865
     atom   10 type  2   force =    -0.00010630    0.00016023   -0.00102416
     atom   11 type  2   force =     0.00005646    0.00004708   -0.00369137
     atom   12 type  2   force =    -0.00008545    0.00002365   -0.00651149
     atom   13 type  2   force =     0.00327782    0.01402662    0.00858597
     The non-local contrib.  to forces
     atom    1 type  1   force =    -0.00316098    0.02374973    0.00874590
     atom    2 type  1   force =     0.00207207    0.00650833   -0.00996794
     atom    3 type  1   force =    -0.00148851    0.00094354    0.00225766
     atom    4 type  1   force =     0.00085131   -0.00016996    0.00390960
     atom    5 type  1   force =    -0.00019709   -0.00066881   -0.00287914
     atom    6 type  1   force =     0.00098014    0.00019708   -0.05356608
     atom    7 type  2   force =     0.00281252   -0.00608165    0.02099492
     atom    8 type  2   force =    -0.00075644   -0.00079820   -0.00115940
     atom    9 type  2   force =     0.00025231   -0.00014540   -0.00138058
     atom   10 type  2   force =    -0.00014773    0.00004991   -0.00152036
     atom   11 type  2   force =     0.00002428    0.00012574   -0.00606014
     atom   12 type  2   force =    -0.00019576   -0.00003649   -0.03802018
     atom   13 type  2   force =    -0.00893344   -0.00350258    0.05136419
     The ionic contribution  to forces
     atom    1 type  1   force =     0.14611252    0.60133781  103.76596643
     atom    2 type  1   force =     0.00263626   -0.03435004   62.41968211
     atom    3 type  1   force =     0.00003199    0.00148851   17.23690717
     atom    4 type  1   force =     0.00000042   -0.00006433  -26.53114195
     atom    5 type  1   force =     0.00000000    0.00000278  -70.47928980
     atom    6 type  1   force =     0.00000000   -0.00000012 -112.42074235
     atom    7 type  2   force =    -0.07713900   -0.26543410   30.14464969
     atom    8 type  2   force =    -0.00062473    0.00847578   16.48415437
     atom    9 type  2   force =    -0.00001019   -0.00040601    4.75166707
     atom   10 type  2   force =    -0.00000011    0.00001755   -7.24059861
     atom   11 type  2   force =    -0.00000000   -0.00000076  -19.17421444
     atom   12 type  2   force =    -0.00000000    0.00000003  -31.36698940
     atom   13 type  2   force =    -0.07100717   -0.31106711   32.40994970
     The local contribution  to forces
     atom    1 type  1   force =    -0.13670796   -0.62458210 -103.75502901
     atom    2 type  1   force =    -0.00497665    0.02672101  -62.40587198
     atom    3 type  1   force =     0.00145489   -0.00291541  -17.24436814
     atom    4 type  1   force =    -0.00082342   -0.00004653   26.52695184
     atom    5 type  1   force =     0.00015905    0.00064550   70.48256004
     atom    6 type  1   force =    -0.00099403   -0.00024165  112.47555168
     atom    7 type  2   force =     0.06632890    0.25918462  -30.18355158
     atom    8 type  2   force =     0.00135364   -0.00759795  -16.48477885
     atom    9 type  2   force =    -0.00007877    0.00070611   -4.75104026
     atom   10 type  2   force =     0.00003923    0.00009249    7.24066614
     atom   11 type  2   force =     0.00003037   -0.00007918   19.17485602
     atom   12 type  2   force =     0.00010901    0.00005842   31.39654730
     atom   13 type  2   force =     0.08290367    0.32904508  -32.45103546
     The core correction contribution to forces
     atom    1 type  1   force =    -0.00089290   -0.00114912   -0.00306004
     atom    2 type  1   force =     0.00002877   -0.00000016   -0.00073209
     atom    3 type  1   force =    -0.00000978   -0.00000111    0.00063606
     atom    4 type  1   force =     0.00000767   -0.00000352   -0.00003290
     atom    5 type  1   force =    -0.00000265   -0.00000488   -0.00020996
     atom    6 type  1   force =     0.00000777    0.00000254    0.00450435
     atom    7 type  2   force =     0.00000000    0.00000000    0.00000000
     atom    8 type  2   force =     0.00000000    0.00000000    0.00000000
     atom    9 type  2   force =     0.00000000    0.00000000    0.00000000
     atom   10 type  2   force =     0.00000000    0.00000000    0.00000000
     atom   11 type  2   force =     0.00000000    0.00000000    0.00000000
     atom   12 type  2   force =     0.00000000    0.00000000    0.00000000
     atom   13 type  2   force =     0.00000000    0.00000000    0.00000000
     The Hubbard contrib.    to forces
     atom    1 type  1   force =     0.00000000    0.00000000    0.00000000
     atom    2 type  1   force =     0.00000000    0.00000000    0.00000000
     atom    3 type  1   force =     0.00000000    0.00000000    0.00000000
     atom    4 type  1   force =     0.00000000    0.00000000    0.00000000
     atom    5 type  1   force =     0.00000000    0.00000000    0.00000000
     atom    6 type  1   force =     0.00000000    0.00000000    0.00000000
     atom    7 type  2   force =     0.00000000    0.00000000    0.00000000
     atom    8 type  2   force =     0.00000000    0.00000000    0.00000000
     atom    9 type  2   force =     0.00000000    0.00000000    0.00000000
     atom   10 type  2   force =     0.00000000    0.00000000    0.00000000
     atom   11 type  2   force =     0.00000000    0.00000000    0.00000000
     atom   12 type  2   force =     0.00000000    0.00000000    0.00000000
     atom   13 type  2   force =     0.00000000    0.00000000    0.00000000
     The SCF correction term to forces
     atom    1 type  1   force =    -0.00009002   -0.00007725    0.00123756
     atom    2 type  1   force =     0.00001177    0.00004368    0.00136431
     atom    3 type  1   force =    -0.00000539    0.00001342    0.00094645
     atom    4 type  1   force =     0.00000159    0.00000264    0.00088088
     atom    5 type  1   force =    -0.00000002   -0.00000018    0.00034315
     atom    6 type  1   force =     0.00000732   -0.00000556   -0.00020043
     atom    7 type  2   force =    -0.00000150   -0.00001846    0.00012348
     atom    8 type  2   force =     0.00000459   -0.00000753    0.00035765
     atom    9 type  2   force =    -0.00000131   -0.00000105    0.00030258
     atom   10 type  2   force =     0.00000067   -0.00000052    0.00019303
     atom   11 type  2   force =     0.00000018    0.00000045    0.00006001
     atom   12 type  2   force =    -0.00000034    0.00000086   -0.00016038
     atom   13 type  2   force =     0.00000165    0.00003334    0.00030898

     DFT-D3 dispersion contribution to forces:
     atom    1 type  1   force =    -0.00056392    0.00062495   -0.00484188
     atom    2 type  1   force =    -0.00000056    0.00000480   -0.00218678
     atom    3 type  1   force =    -0.00000007   -0.00000184    0.00002122
     atom    4 type  1   force =    -0.00000000    0.00000003    0.00057657
     atom    5 type  1   force =    -0.00000000   -0.00000000    0.00364011
     atom    6 type  1   force =    -0.00000000    0.00000000    0.00373421
     atom    7 type  2   force =     0.00025354   -0.00014799   -0.00174469
     atom    8 type  2   force =    -0.00000051    0.00000197   -0.00143344
     atom    9 type  2   force =     0.00000004    0.00000104   -0.00009754
     atom   10 type  2   force =     0.00000000   -0.00000002    0.00031556
     atom   11 type  2   force =     0.00000000    0.00000000    0.00174710
     atom   12 type  2   force =     0.00000000   -0.00000000    0.00219108
     atom   13 type  2   force =     0.00031147   -0.00048294   -0.00192153

     Total force =     0.035496     Total SCF correction =     0.002374


     Computing stress (Cartesian axis) and pressure


     negative rho (up, down):  1.484E-05 0.000E+00
          total   stress  (Ry/bohr**3)                   (kbar)     P=      -12.37
  -0.00008643   0.00000781   0.00000407          -12.71        1.15        0.60
   0.00000781  -0.00010603   0.00002142            1.15      -15.60        3.15
   0.00000407   0.00002142  -0.00005979            0.60        3.15       -8.79


     BFGS Geometry Optimization
     Energy error            =      0.0E+00 Ry
     Gradient error          =      2.0E-02 Ry/Bohr

     number of scf cycles    =   1
     number of bfgs steps    =   0

     energy             new  =    -609.9448459833 Ry

     new trust radius        =       0.0245074261 bohr
     new conv_thr            =       0.0000010000 Ry


ATOMIC_POSITIONS (angstrom)
Ag            0.7831696248        1.1040073978       20.8513267245
Ag            0.7805623619        3.3115991533       18.8322435813
Ag            0.7806770195        1.1038056267       16.6223854853
Ag            0.7807058306        3.3120176835       14.4167848423
Ag            0.7806644116        1.1040423234       12.2102722813
Ag            0.7806865871        3.3121414889       10.0048692097
Li            2.3379561554        3.3055565045       21.1748657395
Li            2.3420423795        1.1040933101       18.7589131758
Li            2.3421418866        3.3122485893       16.6239999246
Li            2.3419989958        1.1041402215       14.4156797658
Li            2.3420851248        3.3121912083       12.2061574756
Li            2.3420100276        1.1040679481        9.9965542681
Li            3.1244734118        0.0074253271       23.1897853893



     Writing config-only to output data dir ./LiAg_mp-2426_110_bridge_0/LiAg_mp-2426_110_bridge_0.save/
     NEW-OLD atomic charge density approx. for the potential

     negative rho (up, down):  1.513E-05 0.000E+00

     total cpu time spent up to now is       21.8 secs

     per-process dynamical memory:   187.2 Mb

     Self-consistent Calculation

     iteration #  1     ecut=    55.00 Ry     beta= 0.30
     Davidson diagonalization with overlap
     ethr =  1.00E-06,  avg # of iterations =  4.1

     negative rho (up, down):  1.499E-05 0.000E+00

     total cpu time spent up to now is       22.8 secs

     total energy              =    -609.94584245 Ry
     estimated scf accuracy    <       0.00042857 Ry

     iteration #  2     ecut=    55.00 Ry     beta= 0.30
     Davidson diagonalization with overlap
     ethr =  4.93E-07,  avg # of iterations =  8.0

     negative rho (up, down):  1.621E-05 0.000E+00

     total cpu time spent up to now is       23.7 secs

     total energy              =    -609.94446493 Ry
     estimated scf accuracy    <       0.08097794 Ry

     iteration #  3     ecut=    55.00 Ry     beta= 0.30
     Davidson diagonalization with overlap
     ethr =  4.93E-07,  avg # of iterations =  7.5

     negative rho (up, down):  1.598E-05 0.000E+00

     total cpu time spent up to now is       24.5 secs

     total energy              =    -609.94604871 Ry
     estimated scf accuracy    <       0.00000564 Ry

     iteration #  4     ecut=    55.00 Ry     beta= 0.30
     Davidson diagonalization with overlap
     ethr =  6.49E-09,  avg # of iterations =  5.1

     negative rho (up, down):  1.562E-05 0.000E+00

     total cpu time spent up to now is       25.3 secs

     total energy              =    -609.94604983 Ry
     estimated scf accuracy    <       0.00001030 Ry

     iteration #  5     ecut=    55.00 Ry     beta= 0.30
     Davidson diagonalization with overlap
     ethr =  6.49E-09,  avg # of iterations =  1.6

     negative rho (up, down):  1.553E-05 0.000E+00

     total cpu time spent up to now is       25.8 secs

     total energy              =    -609.94604998 Ry
     estimated scf accuracy    <       0.00001592 Ry

     iteration #  6     ecut=    55.00 Ry     beta= 0.30
     Davidson diagonalization with overlap
     ethr =  6.49E-09,  avg # of iterations =  1.1

     negative rho (up, down):  1.487E-05 0.000E+00

     total cpu time spent up to now is       26.3 secs

     End of self-consistent calculation

          k = 0.0000 0.0000 0.0000 ( 19753 PWs)   bands (ev):

   -45.7429 -44.4512 -44.2357 -43.9325 -43.8506 -43.8352 -43.7949  -4.1997
    -3.8119  -3.5261  -3.5111  -3.4916  -3.4636  -3.3671  -3.3087  -3.2989
    -3.2844  -3.1415  -3.1108  -3.0025  -2.9636  -2.9141  -2.5003  -2.4544
    -2.4493  -2.3845  -2.3781  -2.3107  -2.2868  -2.2741  -2.1837  -2.1736
    -2.1482  -2.0627  -2.0473  -2.0361  -2.0115  -2.0012  -1.9753  -1.6632
    -1.5042  -0.3493   0.7381   1.7925   2.2197   2.4668   2.9972   4.0682
     4.7156   5.1145   5.2767   5.3846   5.7221

          k = 0.0000 0.0884 0.0000 ( 19735 PWs)   bands (ev):

   -45.7428 -44.4511 -44.2356 -43.9324 -43.8505 -43.8351 -43.7949  -4.1084
    -3.7918  -3.5096  -3.4861  -3.4630  -3.4539  -3.3278  -3.3064  -3.2936
    -3.2501  -3.1540  -3.1321  -2.9872  -2.9188  -2.8567  -2.5473  -2.4805
    -2.4678  -2.4098  -2.3761  -2.3077  -2.2780  -2.2313  -2.1917  -2.1727
    -2.1589  -2.1405  -2.0892  -2.0519  -2.0188  -2.0033  -1.9680  -1.7957
    -1.2725  -0.1665   0.8695   1.4729   2.0930   2.3007   2.6906   3.3591
     4.4319   4.9299   5.3106   5.3653   5.7311

          k = 0.0000 0.1768 0.0000 ( 19834 PWs)   bands (ev):

   -45.7430 -44.4512 -44.2357 -43.9324 -43.8504 -43.8352 -43.7951  -3.8789
    -3.7300  -3.5290  -3.4360  -3.4105  -3.3544  -3.3020  -3.2726  -3.2545
    -3.1979  -3.1749  -3.1053  -2.8940  -2.8632  -2.7703  -2.5281  -2.5253
    -2.5145  -2.4377  -2.4123  -2.3641  -2.3041  -2.2947  -2.2851  -2.2518
    -2.1689  -2.1552  -2.1387  -2.0380  -2.0000  -1.9869  -1.9537  -1.7538
    -0.7919   0.1978   0.2672   1.0779   1.6381   2.0324   2.6054   2.9827
     3.2976   4.1717   5.2340   5.3305   5.7630

          k = 0.0000 0.2652 0.0000 ( 19874 PWs)   bands (ev):

   -45.7430 -44.4512 -44.2357 -43.9324 -43.8503 -43.8353 -43.7952  -3.6618
    -3.6466  -3.5282  -3.4124  -3.3760  -3.3486  -3.2802  -3.2604  -3.2096
    -3.1808  -3.0738  -2.9187  -2.8542  -2.8076  -2.6899  -2.5680  -2.5525
    -2.5423  -2.5027  -2.4625  -2.4441  -2.4281  -2.3279  -2.2972  -2.2879
    -2.1698  -2.1159  -2.0288  -2.0041  -1.9815  -1.9674  -1.9416  -1.1917
    -0.8826  -0.2310  -0.1189   0.9023   1.1655   1.9232   2.2441   2.9231
     3.3258   3.7592   4.2231   5.3908   5.8631

          k = 0.0000-0.3536 0.0000 ( 19864 PWs)   bands (ev):

   -45.7430 -44.4512 -44.2357 -43.9323 -43.8501 -43.8353 -43.7952  -3.5973
    -3.5908  -3.4956  -3.4539  -3.3567  -3.3347  -3.3153  -3.2741  -3.1859
    -3.1715  -2.9244  -2.8942  -2.7987  -2.7400  -2.6985  -2.6401  -2.6043
    -2.5809  -2.5670  -2.4867  -2.4736  -2.4555  -2.3268  -2.3145  -2.1553
    -2.1207  -2.0229  -1.9779  -1.9633  -1.9358  -1.8905  -1.8342  -1.2397
    -1.1633  -0.3505  -0.2675   0.8741   0.9370   1.9638   2.0404   2.8797
     3.2072   3.9334   4.3413   4.7836   5.3338

          k = 0.1250-0.0000 0.0000 ( 19806 PWs)   bands (ev):

   -45.7423 -44.4505 -44.2350 -43.9317 -43.8498 -43.8344 -43.7942  -3.9968
    -3.5688  -3.5094  -3.4648  -3.3821  -3.3063  -3.2833  -3.2711  -3.2409
    -3.0907  -2.9980  -2.9498  -2.9380  -2.9068  -2.8992  -2.6586  -2.6433
    -2.6233  -2.5536  -2.4617  -2.4232  -2.3859  -2.3053  -2.2569  -2.1869
    -2.1596  -2.1553  -2.1118  -2.1028  -2.0773  -2.0338  -1.9576  -1.6442
    -1.2764  -0.0957   1.0185   2.1058   2.6486   2.7998   3.4037   4.4413
     4.9204   5.3295   5.5032   5.7127   5.9233

          k = 0.1250 0.0884 0.0000 ( 19853 PWs)   bands (ev):

   -45.7423 -44.4506 -44.2351 -43.9318 -43.8499 -43.8345 -43.7943  -3.8994
    -3.5834  -3.4557  -3.3852  -3.3646  -3.3140  -3.2715  -3.2381  -3.2205
    -3.0983  -2.9749  -2.9526  -2.9245  -2.9098  -2.8529  -2.6789  -2.6605
    -2.6184  -2.5844  -2.4852  -2.4455  -2.3888  -2.3033  -2.2416  -2.1995
    -2.1612  -2.1341  -2.1219  -2.0959  -2.0705  -2.0638  -1.9979  -1.7577
    -1.0750   0.0653   1.1285   1.8026   2.4474   2.6645   2.9995   3.6532
     4.6680   5.1569   5.5336   5.6014   5.9340

          k = 0.1250 0.1768 0.0000 ( 19851 PWs)   bands (ev):

   -45.7423 -44.4505 -44.2350 -43.9316 -43.8496 -43.8344 -43.7943  -3.6594
    -3.5445  -3.3557  -3.3075  -3.2950  -3.2862  -3.2360  -3.1931  -3.1189
    -3.0950  -2.9953  -2.9768  -2.8796  -2.8535  -2.7762  -2.7138  -2.6900
    -2.6237  -2.6178  -2.4902  -2.4650  -2.3884  -2.3307  -2.2759  -2.2501
    -2.2182  -2.1770  -2.1362  -2.1174  -2.0711  -2.0616  -2.0459  -1.6186
    -0.6196   0.3988   0.5267   1.3278   1.9402   2.2944   2.8929   3.2545
     3.5314   4.3611   5.4248   5.5461   5.9976

          k = 0.1250 0.2652 0.0000 ( 19897 PWs)   bands (ev):

   -45.7424 -44.4505 -44.2350 -43.9316 -43.8495 -43.8345 -43.7944  -3.4755
    -3.4634  -3.3164  -3.2557  -3.2261  -3.2115  -3.1657  -3.1497  -3.0680
    -3.0651  -3.0152  -2.9075  -2.8451  -2.8046  -2.7493  -2.7353  -2.6676
    -2.6603  -2.6301  -2.5322  -2.4912  -2.4339  -2.4056  -2.3736  -2.3047
    -2.2193  -2.1706  -2.1242  -2.0723  -2.0482  -2.0363  -1.8374  -1.0426
    -0.6485  -0.0617   0.0273   1.1194   1.4108   2.1144   2.4716   3.1354
     3.5557   4.0596   4.4278   5.5822   6.0952

          k = 0.1250-0.3536 0.0000 ( 19884 PWs)   bands (ev):

   -45.7423 -44.4504 -44.2350 -43.9316 -43.8494 -43.8345 -43.7944  -3.4335
    -3.4114  -3.2634  -3.2480  -3.2269  -3.1968  -3.1583  -3.1449  -3.1123
    -3.0292  -2.9135  -2.8858  -2.8001  -2.7667  -2.7494  -2.7482  -2.6769
    -2.6621  -2.6249  -2.5937  -2.5796  -2.4727  -2.4487  -2.4336  -2.2761
    -2.2215  -2.1211  -2.0664  -2.0553  -2.0263  -1.6760  -1.6254  -1.0748
    -0.9969  -0.2172  -0.1313   1.0728   1.1612   2.1530   2.2355   3.0947
     3.4105   4.1562   4.6094   5.0654   5.5893

          k = 0.1250-0.2652 0.0000 ( 19897 PWs)   bands (ev):

   -45.7424 -44.4505 -44.2350 -43.9316 -43.8495 -43.8345 -43.7944  -3.4756
    -3.4635  -3.3168  -3.2558  -3.2261  -3.2125  -3.1656  -3.1498  -3.0680
    -3.0638  -3.0152  -2.9066  -2.8465  -2.8051  -2.7485  -2.7358  -2.6680
    -2.6624  -2.6313  -2.5263  -2.4915  -2.4340  -2.4043  -2.3746  -2.3059
    -2.2184  -2.1692  -2.1251  -2.0739  -2.0484  -2.0360  -1.8350  -1.0404
    -0.6500  -0.0632   0.0289   1.1173   1.4226   2.1089   2.4859   3.1150
     3.5490   4.0455   4.4204   5.5809   6.1097

          k = 0.1250-0.1768 0.0000 ( 19851 PWs)   bands (ev):

   -45.7423 -44.4505 -44.2350 -43.9316 -43.8496 -43.8344 -43.7943  -3.6595
    -3.5448  -3.3562  -3.3074  -3.2950  -3.2867  -3.2358  -3.1932  -3.1192
    -3.0951  -2.9942  -2.9768  -2.8802  -2.8540  -2.7757  -2.7142  -2.6898
    -2.6280  -2.6177  -2.4900  -2.4539  -2.3904  -2.3258  -2.2797  -2.2510
    -2.2193  -2.1792  -2.1316  -2.1235  -2.0724  -2.0604  -2.0453  -1.6170
    -0.6171   0.4042   0.5262   1.3266   1.9476   2.2882   2.8952   3.2489
     3.5282   4.3384   5.3863   5.5574   5.9989

          k = 0.1250-0.0884 0.0000 ( 19853 PWs)   bands (ev):

   -45.7423 -44.4506 -44.2351 -43.9318 -43.8499 -43.8345 -43.7943  -3.8995
    -3.5837  -3.4556  -3.3852  -3.3646  -3.3144  -3.2713  -3.2385  -3.2204
    -3.0984  -2.9752  -2.9528  -2.9241  -2.9097  -2.8530  -2.6789  -2.6606
    -2.6215  -2.5849  -2.4741  -2.4461  -2.3897  -2.3071  -2.2423  -2.1983
    -2.1595  -2.1359  -2.1188  -2.0998  -2.0709  -2.0650  -1.9962  -1.7581
    -1.0739   0.0694   1.1337   1.7968   2.4478   2.6588   3.0002   3.6538
     4.6622   5.1551   5.5121   5.6023   5.9365

          k = 0.2500-0.0000 0.0000 ( 19968 PWs)   bands (ev):

   -45.7409 -44.4489 -44.2334 -43.9300 -43.8481 -43.8327 -43.7925  -3.7075
    -3.5017  -3.4008  -3.3225  -3.2801  -3.2136  -3.0688  -3.0635  -3.0377
    -2.9707  -2.9553  -2.9320  -2.9196  -2.8616  -2.8186  -2.7605  -2.7016
    -2.5632  -2.5034  -2.4488  -2.4159  -2.3932  -2.3699  -2.3612  -2.3348
    -2.2964  -2.2892  -2.2454  -2.0973  -2.0296  -1.9119  -1.6658  -1.6124
    -0.6442   0.5875   1.7514   2.8967   3.6625   3.8426   4.4837   5.1434
     5.3892   5.4659   5.5439   5.8740   6.0461

          k = 0.2500 0.0884 0.0000 ( 19915 PWs)   bands (ev):

   -45.7408 -44.4488 -44.2333 -43.9299 -43.8480 -43.8326 -43.7924  -3.6214
    -3.4434  -3.4175  -3.2583  -3.2255  -3.2024  -3.0811  -3.0691  -3.0223
    -2.9830  -2.9439  -2.9227  -2.8705  -2.8378  -2.8197  -2.7698  -2.6894
    -2.5609  -2.5055  -2.4716  -2.4407  -2.3894  -2.3429  -2.3397  -2.3231
    -2.2925  -2.2709  -2.2335  -2.1133  -2.0661  -1.9843  -1.7400  -1.5371
    -0.4990   0.7093   1.8269   2.6250   3.3509   3.5725   3.8740   4.3375
     4.9860   5.1750   5.3468   5.7791   6.2854

          k = 0.2500 0.1768 0.0000 ( 19923 PWs)   bands (ev):

   -45.7408 -44.4488 -44.2333 -43.9298 -43.8478 -43.8326 -43.7924  -3.4380
    -3.3761  -3.2808  -3.1830  -3.1616  -3.1197  -3.0980  -3.0451  -3.0209
    -2.9985  -2.9081  -2.8974  -2.8369  -2.8118  -2.7593  -2.7480  -2.6645
    -2.5849  -2.5267  -2.4684  -2.4606  -2.4021  -2.3410  -2.3108  -2.2749
    -2.2647  -2.2393  -2.2100  -2.1814  -2.1532  -1.9906  -1.9282  -1.1977
    -0.1173   0.9643   1.2403   1.9768   2.6649   2.9054   3.6187   3.7467
     4.3272   4.5692   5.2003   5.9331   6.1346

          k = 0.2500 0.2652 0.0000 ( 19896 PWs)   bands (ev):

   -45.7407 -44.4487 -44.2332 -43.9297 -43.8476 -43.8326 -43.7924  -3.3128
    -3.2961  -3.1372  -3.1263  -3.1166  -3.0902  -3.0727  -3.0208  -3.0050
    -2.9130  -2.8928  -2.8631  -2.8263  -2.7645  -2.7186  -2.6452  -2.6311
    -2.6070  -2.5492  -2.4913  -2.4685  -2.4380  -2.4077  -2.3590  -2.3458
    -2.3138  -2.2698  -2.2413  -2.2374  -2.2121  -1.8081  -1.4099  -0.6137
    -0.0097   0.3872   0.5028   1.6396   2.0032   2.5600   3.0413   3.5651
     4.1605   4.6593   4.9938   5.6608   6.5840

          k = 0.2500-0.3536 0.0000 ( 19900 PWs)   bands (ev):

   -45.7407 -44.4487 -44.2332 -43.9297 -43.8475 -43.8326 -43.7925  -3.2734
    -3.2489  -3.1336  -3.1260  -3.1024  -3.0707  -3.0448  -3.0320  -2.9470
    -2.9338  -2.8394  -2.8174  -2.7527  -2.7160  -2.6496  -2.6354  -2.6247
    -2.5916  -2.5895  -2.5484  -2.5396  -2.4635  -2.4419  -2.4239  -2.4100
    -2.3483  -2.3123  -2.2537  -2.2352  -2.2147  -1.1053  -1.0529  -0.6057
    -0.5150   0.1612   0.2649   1.5404   1.6856   2.6036   2.7383   3.5854
     3.9167   4.6477   5.1553   5.8317   6.2992

          k = 0.2500-0.2652 0.0000 ( 19896 PWs)   bands (ev):

   -45.7407 -44.4487 -44.2332 -43.9297 -43.8476 -43.8326 -43.7924  -3.3127
    -3.2961  -3.1368  -3.1249  -3.1184  -3.0895  -3.0743  -3.0206  -3.0045
    -2.9163  -2.8938  -2.8625  -2.8255  -2.7642  -2.7171  -2.6468  -2.6288
    -2.6035  -2.5476  -2.4890  -2.4695  -2.4379  -2.4089  -2.3584  -2.3503
    -2.3178  -2.2699  -2.2419  -2.2381  -2.2107  -1.8064  -1.4061  -0.6112
    -0.0109   0.3900   0.5017   1.6410   2.0291   2.5539   3.0878   3.5221
     4.1311   4.5840   4.9854   5.5616   6.7125

          k = 0.2500-0.1768 0.0000 ( 19923 PWs)   bands (ev):

   -45.7408 -44.4488 -44.2333 -43.9298 -43.8478 -43.8326 -43.7924  -3.4379
    -3.3762  -3.2808  -3.1840  -3.1606  -3.1209  -3.0984  -3.0446  -3.0207
    -2.9991  -2.9118  -2.8987  -2.8330  -2.8108  -2.7609  -2.7490  -2.6619
    -2.5807  -2.5235  -2.4729  -2.4562  -2.4018  -2.3472  -2.3116  -2.2750
    -2.2642  -2.2410  -2.2125  -2.1801  -2.1528  -1.9905  -1.9251  -1.1956
    -0.1134   0.9784   1.2405   1.9764   2.6856   2.9014   3.6157   3.7611
     4.3202   4.5527   5.1673   5.5170   6.2402

          k = 0.2500-0.0884 0.0000 ( 19915 PWs)   bands (ev):

   -45.7408 -44.4488 -44.2333 -43.9299 -43.8480 -43.8326 -43.7924  -3.6214
    -3.4434  -3.4176  -3.2577  -3.2262  -3.2028  -3.0805  -3.0692  -3.0236
    -2.9830  -2.9431  -2.9246  -2.8741  -2.8335  -2.8192  -2.7706  -2.6889
    -2.5577  -2.5019  -2.4723  -2.4446  -2.3889  -2.3444  -2.3393  -2.3229
    -2.2918  -2.2707  -2.2348  -2.1130  -2.0659  -1.9846  -1.7407  -1.5360
    -0.4972   0.7185   1.8397   2.6094   3.3496   3.5707   3.8702   4.3640
     5.0438   5.1867   5.3546   5.6434   6.0174

          k = 0.3750-0.0000 0.0000 ( 19934 PWs)   bands (ev):

   -45.7392 -44.4470 -44.2315 -43.9280 -43.8461 -43.8306 -43.7904  -3.5798
    -3.4884  -3.3920  -3.3900  -3.3322  -3.2730  -3.2670  -3.2578  -3.2068
    -3.1410  -3.0980  -3.0691  -2.9307  -2.8619  -2.8168  -2.7777  -2.7570
    -2.6295  -2.6105  -2.5287  -2.5182  -2.3152  -2.2831  -2.1336  -2.0625
    -2.0055  -1.8798  -1.8481  -1.7777  -1.5979  -1.3030  -0.9906  -0.4178
     0.5203   1.6831   2.7095   2.8167   3.1290   3.6727   4.0920   4.5697
     5.0497   5.3590   5.4283   5.9958   6.2082

          k = 0.3750 0.0884 0.0000 ( 19943 PWs)   bands (ev):

   -45.7392 -44.4470 -44.2315 -43.9280 -43.8460 -43.8307 -43.7904  -3.5040
    -3.4290  -3.3991  -3.3871  -3.3346  -3.2869  -3.2493  -3.2151  -3.1555
    -3.1252  -3.1080  -3.0579  -2.8894  -2.8565  -2.8078  -2.7420  -2.7129
    -2.6434  -2.5682  -2.5268  -2.4956  -2.4048  -2.2135  -2.1609  -2.1134
    -2.0430  -1.8802  -1.8580  -1.7709  -1.6625  -1.2361  -0.9406  -0.3572
     0.6051   1.7648   2.7769   2.8735   3.1511   3.6026   3.8544   4.2145
     4.4416   4.5801   5.2238   5.8745   6.5067

          k = 0.3750 0.1768 0.0000 ( 19944 PWs)   bands (ev):

   -45.7392 -44.4470 -44.2315 -43.9279 -43.8459 -43.8307 -43.7905  -3.4097
    -3.4055  -3.3398  -3.3022  -3.2794  -3.2666  -3.2455  -3.1193  -3.1007
    -3.0796  -3.0623  -3.0187  -2.8478  -2.8056  -2.7433  -2.7057  -2.6326
    -2.5933  -2.5407  -2.4895  -2.4585  -2.4196  -2.2769  -2.2078  -2.1764
    -2.1334  -1.9503  -1.8619  -1.7922  -1.7489  -1.0232  -0.7521  -0.1414
     0.8592   1.9560   2.3953   2.8332   3.0376   3.1572   3.2348   3.4247
     3.5637   4.5085   5.6066   5.7796   5.9326

          k = 0.3750 0.2652 0.0000 ( 19919 PWs)   bands (ev):

   -45.7391 -44.4469 -44.2314 -43.9279 -43.8457 -43.8308 -43.7905  -3.4203
    -3.4148  -3.3031  -3.2885  -3.2097  -3.1903  -3.1335  -3.0785  -3.0492
    -2.9973  -2.9792  -2.8574  -2.8173  -2.7639  -2.6806  -2.6468  -2.5846
    -2.5555  -2.5293  -2.4398  -2.4296  -2.3980  -2.3792  -2.3320  -2.2392
    -2.1790  -1.9428  -1.9212  -1.8189  -1.8052  -0.6115  -0.3245   0.3063
     1.1161   1.2396   1.4568   2.2061   2.5946   2.8125   3.1965   3.4189
     3.6326   4.4835   5.2435   5.7328   6.0287

          k = 0.3750-0.3536 0.0000 ( 19954 PWs)   bands (ev):

   -45.7392 -44.4470 -44.2315 -43.9279 -43.8457 -43.8309 -43.7906  -3.4240
    -3.4198  -3.3052  -3.2938  -3.1606  -3.1426  -3.1256  -3.1034  -2.9966
    -2.9860  -2.8177  -2.8055  -2.7775  -2.7170  -2.6708  -2.6191  -2.5920
    -2.5389  -2.5254  -2.5027  -2.4892  -2.4345  -2.3934  -2.3778  -2.1874
    -2.1455  -1.9580  -1.9184  -1.8560  -1.8332   0.0672   0.1094   0.3822
     0.4709   0.9458   1.0748   2.0375   2.1837   2.9239   3.0885   3.6821
     3.8267   4.1216   4.9041   5.7488   5.9193

          k = 0.3750-0.2652 0.0000 ( 19919 PWs)   bands (ev):

   -45.7391 -44.4469 -44.2314 -43.9279 -43.8457 -43.8308 -43.7905  -3.4203
    -3.4148  -3.3031  -3.2886  -3.2097  -3.1902  -3.1333  -3.0798  -3.0500
    -2.9985  -2.9789  -2.8552  -2.8165  -2.7605  -2.6827  -2.6472  -2.5845
    -2.5558  -2.5298  -2.4390  -2.4264  -2.4014  -2.3798  -2.3319  -2.2392
    -2.1795  -1.9425  -1.9222  -1.8190  -1.8056  -0.6110  -0.3244   0.3036
     1.1204   1.2414   1.4620   2.2302   2.6338   2.8272   3.2315   3.4311
     3.6425   4.2311   4.8816   5.9945   6.0387

          k = 0.3750-0.1768 0.0000 ( 19944 PWs)   bands (ev):

   -45.7392 -44.4470 -44.2315 -43.9279 -43.8459 -43.8307 -43.7905  -3.4096
    -3.4056  -3.3393  -3.3026  -3.2804  -3.2671  -3.2447  -3.1183  -3.0994
    -3.0836  -3.0630  -3.0190  -2.8437  -2.8042  -2.7436  -2.7041  -2.6338
    -2.5944  -2.5411  -2.4894  -2.4568  -2.4208  -2.2787  -2.2077  -2.1763
    -2.1332  -1.9514  -1.8618  -1.7928  -1.7489  -1.0227  -0.7514  -0.1424
     0.8615   1.9947   2.4023   2.8658   3.0449   3.1704   3.2785   3.4190
     3.5591   4.4362   4.8854   5.6597   6.3807

          k = 0.3750-0.0884 0.0000 ( 19943 PWs)   bands (ev):

   -45.7392 -44.4470 -44.2315 -43.9280 -43.8460 -43.8307 -43.7904  -3.5037
    -3.4295  -3.3989  -3.3870  -3.3347  -3.2873  -3.2498  -3.2140  -3.1541
    -3.1251  -3.1106  -3.0591  -2.8868  -2.8584  -2.8029  -2.7431  -2.7125
    -2.6451  -2.5685  -2.5263  -2.4958  -2.4054  -2.2137  -2.1613  -2.1132
    -2.0430  -1.8801  -1.8583  -1.7711  -1.6629  -1.2357  -0.9402  -0.3575
     0.6065   1.7845   2.7950   2.8921   3.1494   3.5877   3.8438   4.2399
     4.4824   4.6109   5.1330   5.3491   6.6651

          k =-0.5000 0.0000 0.0000 ( 19974 PWs)   bands (ev):

   -45.7386 -44.4463 -44.2308 -43.9272 -43.8454 -43.8298 -43.7896  -3.5423
    -3.5122  -3.5063  -3.4797  -3.3766  -3.3617  -3.3018  -3.2606  -3.1782
    -3.1619  -3.1555  -3.0996  -2.9388  -2.9171  -2.9095  -2.7639  -2.7463
    -2.7149  -2.6978  -2.6072  -2.5969  -2.3007  -2.2330  -2.1078  -1.9954
    -1.9264  -1.8620  -1.6350  -1.5892  -1.5217   0.3577   0.5796   0.7150
     1.0358   1.1666   1.7691   1.9239   2.7033   3.0624   3.7014   4.4012
     4.8976   5.5703   5.7526   6.4596   6.6449

          k =-0.5000 0.0884 0.0000 ( 19948 PWs)   bands (ev):

   -45.7386 -44.4462 -44.2308 -43.9272 -43.8452 -43.8299 -43.7896  -3.5178
    -3.5071  -3.4691  -3.4131  -3.3914  -3.3545  -3.3008  -3.2051  -3.1971
    -3.1429  -3.1113  -3.0766  -2.9552  -2.8853  -2.8646  -2.7330  -2.7274
    -2.6871  -2.6531  -2.6041  -2.5704  -2.3903  -2.1579  -2.1243  -2.0605
    -2.0265  -1.7663  -1.7304  -1.5544  -1.5309   0.3929   0.6143   0.8306
     1.0817   1.2308   1.8225   1.9408   2.7049   3.0748   3.6586   4.3342
     4.7980   5.3287   5.4846   5.8001   6.1549

          k =-0.5000 0.1768 0.0000 ( 19956 PWs)   bands (ev):

   -45.7386 -44.4463 -44.2308 -43.9272 -43.8451 -43.8300 -43.7897  -3.5233
    -3.5172  -3.4018  -3.3703  -3.3050  -3.2440  -3.2356  -3.1882  -3.1705
    -3.0665  -3.0285  -2.9920  -2.9311  -2.8928  -2.7262  -2.6901  -2.6691
    -2.6246  -2.5922  -2.5595  -2.5265  -2.4089  -2.2330  -2.1875  -2.1484
    -2.0786  -1.8697  -1.6584  -1.5799  -1.5341   0.5248   0.7454   1.1658
     1.2370   1.4289   1.8983   2.0683   2.6129   3.0936   3.4230   3.7638
     3.9590   4.3174   4.9309   5.2527   5.5384

          k =-0.5000 0.2652 0.0000 ( 19924 PWs)   bands (ev):

   -45.7385 -44.4462 -44.2307 -43.9271 -43.8449 -43.8300 -43.7898  -3.5308
    -3.5248  -3.4050  -3.3882  -3.2157  -3.1676  -3.1568  -3.1454  -3.0209
    -2.9675  -2.9448  -2.9256  -2.8533  -2.8080  -2.6614  -2.6536  -2.6075
    -2.6005  -2.5615  -2.5037  -2.4926  -2.3903  -2.3605  -2.3132  -2.1977
    -2.0848  -1.7588  -1.7366  -1.5808  -1.5548   0.8323   1.0575   1.5453
     1.6896   1.7690   1.9666   2.2226   2.3897   2.4245   2.6464   2.8761
     3.2282   3.6233   4.5730   4.8543   5.3180

          k =-0.5000-0.3536 0.0000 ( 19904 PWs)   bands (ev):

   -45.7384 -44.4461 -44.2307 -43.9270 -43.8448 -43.8300 -43.7897  -3.5329
    -3.5293  -3.4062  -3.3941  -3.2046  -3.1848  -3.1114  -3.0978  -2.9428
    -2.9250  -2.9134  -2.8626  -2.7826  -2.7136  -2.6737  -2.6489  -2.6025
    -2.5814  -2.5341  -2.5079  -2.5046  -2.4688  -2.4617  -2.3594  -2.0837
    -2.0332  -1.7823  -1.7418  -1.5834  -1.5679   1.4138   1.4395   1.6455
     1.6703   1.9344   2.0429   2.1230   2.1346   2.2078   2.3641   2.3989
     2.5862   3.4401   4.4869   4.6796   5.3356

     the Fermi energy is     1.9334 ev

!    total energy              =    -609.94605049 Ry
     estimated scf accuracy    <       0.00000067 Ry
     smearing contrib. (-TS)   =      -0.00189525 Ry
     internal energy E=F+TS    =    -609.94415524 Ry

     The total energy is F=E-TS. E is the sum of the following terms:
     one-electron contribution =   -6073.88723549 Ry
     hartree contribution      =    3077.27570271 Ry
     xc contribution           =    -159.35792829 Ry
     ewald contribution        =    2546.25711424 Ry
     DFT-D3 Dispersion         =      -0.23180840 Ry

     convergence has been achieved in   6 iterations

     negative rho (up, down):  1.487E-05 0.000E+00

     Forces acting on atoms (cartesian axes, Ry/au):

     atom    1 type  1   force =     0.00436093   -0.00050126    0.01137230
     atom    2 type  1   force =    -0.00027993   -0.00105223    0.00144074
     atom    3 type  1   force =    -0.00000912   -0.00045541   -0.00367906
     atom    4 type  1   force =     0.00003011   -0.00026033    0.00111478
     atom    5 type  1   force =    -0.00003924   -0.00002318    0.00392213
     atom    6 type  1   force =    -0.00000339   -0.00004485    0.00908161
     atom    7 type  2   force =    -0.00698181   -0.01123775   -0.01784389
     atom    8 type  2   force =     0.00008952    0.00002233   -0.00236925
     atom    9 type  2   force =     0.00013803    0.00012431   -0.00046191
     atom   10 type  2   force =    -0.00009916    0.00013377   -0.00082568
     atom   11 type  2   force =     0.00004753    0.00004054   -0.00307028
     atom   12 type  2   force =    -0.00008303    0.00001728   -0.00608355
     atom   13 type  2   force =     0.00282956    0.01323678    0.00740204
     The non-local contrib.  to forces
     atom    1 type  1   force =    -0.00303717    0.02352104    0.00877463
     atom    2 type  1   force =     0.00191185    0.00663813   -0.01042477
     atom    3 type  1   force =    -0.00142353    0.00094538    0.00235494
     atom    4 type  1   force =     0.00082290   -0.00018548    0.00404110
     atom    5 type  1   force =    -0.00019549   -0.00068939   -0.00240726
     atom    6 type  1   force =     0.00096449    0.00019957   -0.05259448
     atom    7 type  2   force =     0.00285568   -0.00553227    0.02096763
     atom    8 type  2   force =    -0.00068233   -0.00083590   -0.00100868
     atom    9 type  2   force =     0.00024146   -0.00016697   -0.00128133
     atom   10 type  2   force =    -0.00014138    0.00003599   -0.00143318
     atom   11 type  2   force =     0.00002180    0.00012531   -0.00572714
     atom   12 type  2   force =    -0.00018968   -0.00004149   -0.03801173
     atom   13 type  2   force =    -0.00873561   -0.00361797    0.05149920
     The ionic contribution  to forces
     atom    1 type  1   force =     0.14004803    0.57333951  103.78385691
     atom    2 type  1   force =    -0.00133261   -0.02353200   62.41910424
     atom    3 type  1   force =     0.00008264    0.00117972   17.26419087
     atom    4 type  1   force =    -0.00000139    0.00077792  -26.51107686
     atom    5 type  1   force =    -0.00001546   -0.00047330  -70.47718891
     atom    6 type  1   force =    -0.00002694    0.00018420 -112.42468371
     atom    7 type  2   force =    -0.06424610   -0.23449938   30.10880998
     atom    8 type  2   force =     0.00142036    0.00473823   16.48445502
     atom    9 type  2   force =    -0.00027368   -0.00096411    4.76812459
     atom   10 type  2   force =     0.00013979   -0.00064099   -7.23880079
     atom   11 type  2   force =    -0.00008043    0.00005093  -19.18056517
     atom   12 type  2   force =     0.00007111   -0.00014359  -31.39255680
     atom   13 type  2   force =    -0.07578532   -0.32001712   32.39633064
     The local contribution  to forces
     atom    1 type  1   force =    -0.13114966   -0.59726274 -103.77131151
     atom    2 type  1   force =    -0.00085063    0.01611402  -62.40306660
     atom    3 type  1   force =     0.00133526   -0.00260440  -17.27083702
     atom    4 type  1   force =    -0.00079512   -0.00085649   26.50601708
     atom    5 type  1   force =     0.00017585    0.00113786   70.47926366
     atom    6 type  1   force =    -0.00094622   -0.00042198  112.47720816
     atom    7 type  2   force =     0.05419322    0.22913564  -30.14529812
     atom    8 type  2   force =    -0.00067379   -0.00392801  -16.48417109
     atom    9 type  2   force =     0.00017395    0.00126796   -4.76728939
     atom   10 type  2   force =    -0.00009750    0.00074453    7.23864252
     atom   11 type  2   force =     0.00010711   -0.00013363   19.18118092
     atom   12 type  2   force =     0.00003763    0.00020225   31.42207068
     atom   13 type  2   force =     0.08701474    0.33744204  -32.43808055
     The core correction contribution to forces
     atom    1 type  1   force =    -0.00084420   -0.00106312   -0.00293316
     atom    2 type  1   force =     0.00004076   -0.00001069   -0.00064685
     atom    3 type  1   force =    -0.00001080   -0.00000483    0.00062184
     atom    4 type  1   force =     0.00000804   -0.00000753   -0.00000640
     atom    5 type  1   force =    -0.00000273   -0.00000524   -0.00014044
     atom    6 type  1   force =     0.00000822    0.00000203    0.00453735
     atom    7 type  2   force =     0.00000000    0.00000000    0.00000000
     atom    8 type  2   force =     0.00000000    0.00000000    0.00000000
     atom    9 type  2   force =     0.00000000    0.00000000    0.00000000
     atom   10 type  2   force =     0.00000000    0.00000000    0.00000000
     atom   11 type  2   force =     0.00000000    0.00000000    0.00000000
     atom   12 type  2   force =     0.00000000    0.00000000    0.00000000
     atom   13 type  2   force =     0.00000000    0.00000000    0.00000000
     The Hubbard contrib.    to forces
     atom    1 type  1   force =     0.00000000    0.00000000    0.00000000
     atom    2 type  1   force =     0.00000000    0.00000000    0.00000000
     atom    3 type  1   force =     0.00000000    0.00000000    0.00000000
     atom    4 type  1   force =     0.00000000    0.00000000    0.00000000
     atom    5 type  1   force =     0.00000000    0.00000000    0.00000000
     atom    6 type  1   force =     0.00000000    0.00000000    0.00000000
     atom    7 type  2   force =     0.00000000    0.00000000    0.00000000
     atom    8 type  2   force =     0.00000000    0.00000000    0.00000000
     atom    9 type  2   force =     0.00000000    0.00000000    0.00000000
     atom   10 type  2   force =     0.00000000    0.00000000    0.00000000
     atom   11 type  2   force =     0.00000000    0.00000000    0.00000000
     atom   12 type  2   force =     0.00000000    0.00000000    0.00000000
     atom   13 type  2   force =     0.00000000    0.00000000    0.00000000
     The SCF correction term to forces
     atom    1 type  1   force =    -0.00010470    0.00032838   -0.00220286
     atom    2 type  1   force =    -0.00004266   -0.00026442   -0.00132920
     atom    3 type  1   force =     0.00000873    0.00003148    0.00002070
     atom    4 type  1   force =    -0.00000313    0.00001284    0.00157900
     atom    5 type  1   force =     0.00000023    0.00000746    0.00075774
     atom    6 type  1   force =    -0.00000160   -0.00000761    0.00086819
     atom    7 type  2   force =    -0.00002142   -0.00017269   -0.00053275
     atom    8 type  2   force =     0.00002680    0.00004239   -0.00019480
     atom    9 type  2   force =    -0.00000273   -0.00001355    0.00009723
     atom   10 type  2   force =     0.00000159   -0.00000539    0.00046685
     atom   11 type  2   force =     0.00000035   -0.00000127    0.00031460
     atom   12 type  2   force =    -0.00000056    0.00000097    0.00024455
     atom   13 type  2   force =     0.00002068   -0.00009017   -0.00042086

     DFT-D3 dispersion contribution to forces:
     atom    1 type  1   force =    -0.00054993    0.00063660   -0.00479799
     atom    2 type  1   force =    -0.00000519    0.00000366   -0.00218236
     atom    3 type  1   force =     0.00000002   -0.00000184   -0.00001665
     atom    4 type  1   force =     0.00000025   -0.00000066    0.00057459
     atom    5 type  1   force =    -0.00000020    0.00000036    0.00365106
     atom    6 type  1   force =     0.00000010   -0.00000013    0.00375982
     atom    7 type  2   force =     0.00023825   -0.00016812   -0.00177691
     atom    8 type  2   force =    -0.00000008    0.00000654   -0.00143598
     atom    9 type  2   force =     0.00000046    0.00000192   -0.00009929
     atom   10 type  2   force =    -0.00000022    0.00000056    0.00031264
     atom   11 type  2   force =     0.00000014    0.00000013    0.00174024
     atom   12 type  2   force =    -0.00000010    0.00000006    0.00218347
     atom   13 type  2   force =     0.00031651   -0.00047907   -0.00191266

     Total force =     0.032392     Total SCF correction =     0.003400
     SCF correction compared to forces is large: reduce conv_thr to get better values


     Computing stress (Cartesian axis) and pressure


     negative rho (up, down):  1.487E-05 0.000E+00
          total   stress  (Ry/bohr**3)                   (kbar)     P=      -13.08
  -0.00009084   0.00000768   0.00000357          -13.36        1.13        0.52
   0.00000768  -0.00011029   0.00002070            1.13      -16.22        3.04
   0.00000357   0.00002070  -0.00006563            0.52        3.04       -9.65

     Energy error            =      1.2E-03 Ry
     Gradient error          =      1.8E-02 Ry/Bohr

     number of scf cycles    =   2
     number of bfgs steps    =   1

     energy             old  =    -609.9448459833 Ry
     energy             new  =    -609.9460504888 Ry

     CASE: energy            _new < energy            _old


     WARNING: bfgs curvature condition failed, Theta= 0.877
     new trust radius        =       0.0269581687 bohr
     new conv_thr            =       0.0000001205 Ry


ATOMIC_POSITIONS (angstrom)
Ag            0.7859549351        1.1037476188       20.8586833640
Ag            0.7803937362        3.3109355272       18.8332527270
Ag            0.7806704607        1.1035172783       16.6200742588
Ag            0.7807259816        3.3118513646       14.4174782713
Ag            0.7806397857        1.1040275463       12.2127581786
Ag            0.7806853043        3.3121130405       10.0105905026
Li            2.3334667947        3.2983261496       21.1634168821
Li            2.3420835117        1.1041144707       18.7573474299
Li            2.3422320810        3.3123309154       16.6236871290
Li            2.3419357356        1.1042278447       14.4151341430
Li            2.3421161931        3.3122175614       12.2041444591
Li            2.3419575379        1.1040796662        9.9926745386
Li            3.1263117595        0.0158477987       23.1945959791



     Writing config-only to output data dir ./LiAg_mp-2426_110_bridge_0/LiAg_mp-2426_110_bridge_0.save/
     NEW-OLD atomic charge density approx. for the potential

     negative rho (up, down):  1.519E-05 0.000E+00

     total cpu time spent up to now is       28.0 secs

     per-process dynamical memory:   214.7 Mb

     Self-consistent Calculation

     iteration #  1     ecut=    55.00 Ry     beta= 0.30
     Davidson diagonalization with overlap
     ethr =  1.00E-06,  avg # of iterations =  4.0

     negative rho (up, down):  1.507E-05 0.000E+00

     total cpu time spent up to now is       28.9 secs

     total energy              =    -609.94712127 Ry
     estimated scf accuracy    <       0.00031867 Ry

     iteration #  2     ecut=    55.00 Ry     beta= 0.30
     Davidson diagonalization with overlap
     ethr =  3.66E-07,  avg # of iterations =  4.2

     negative rho (up, down):  1.646E-05 0.000E+00

     total cpu time spent up to now is       29.7 secs

     total energy              =    -609.94679620 Ry
     estimated scf accuracy    <       0.01215314 Ry

     iteration #  3     ecut=    55.00 Ry     beta= 0.30
     Davidson diagonalization with overlap
     ethr =  3.66E-07,  avg # of iterations =  2.8

     negative rho (up, down):  1.843E-05 0.000E+00

     total cpu time spent up to now is       30.3 secs

     total energy              =    -609.94721270 Ry
     estimated scf accuracy    <       0.00239255 Ry

     iteration #  4     ecut=    55.00 Ry     beta= 0.30
     Davidson diagonalization with overlap
     ethr =  3.66E-07,  avg # of iterations =  1.1

     negative rho (up, down):  1.845E-05 0.000E+00

     total cpu time spent up to now is       30.7 secs

     total energy              =    -609.94726495 Ry
     estimated scf accuracy    <       0.00002157 Ry

     iteration #  5     ecut=    55.00 Ry     beta= 0.30
     Davidson diagonalization with overlap
[...]
    -2.5713  -2.4779  -2.4016  -2.3714  -2.3200  -2.2265  -2.1629  -2.1066
    -2.0333  -1.8616  -1.7931  -1.7120  -1.6586  -0.9546  -0.7070  -0.1442
     0.9235   2.0522   2.5009   2.9858   3.0990   3.2072   3.4056   3.5582
     3.6249   4.7351   4.7670   5.7967   6.4880

          k = 0.3750 0.2652 0.0000 ( 19919 PWs)   bands (ev):

   -45.3418 -44.5091 -44.1332 -43.8210 -43.7586 -43.7521 -43.7424  -3.3719
    -3.3464  -3.2604  -3.2467  -3.1860  -3.1361  -3.1204  -3.0952  -3.0347
    -2.9480  -2.8986  -2.7892  -2.7585  -2.7307  -2.6785  -2.6644  -2.5663
    -2.5213  -2.4717  -2.4161  -2.3696  -2.3470  -2.3252  -2.2635  -2.1000
    -2.0774  -1.8894  -1.8421  -1.7511  -1.7081  -0.5391  -0.2721   0.3039
     1.1731   1.2954   1.5880   2.3304   2.6748   2.9265   3.3386   3.5289
     3.7296   4.3870   4.7860   6.0993   6.1414

          k = 0.3750-0.3536 0.0000 ( 19954 PWs)   bands (ev):

   -45.3418 -44.5092 -44.1332 -43.8210 -43.7583 -43.7525 -43.7426  -3.3753
    -3.3528  -3.2677  -3.2503  -3.1413  -3.1286  -3.1182  -3.0634  -2.9756
    -2.9166  -2.7637  -2.7525  -2.7087  -2.6827  -2.6620  -2.6479  -2.5588
    -2.5149  -2.5101  -2.4495  -2.4244  -2.3502  -2.3347  -2.3145  -2.0713
    -2.0607  -1.8909  -1.8456  -1.7826  -1.7456   0.1394   0.1731   0.4236
     0.5406   0.9469   1.1546   2.1594   2.3142   3.0146   3.1988   3.7778
     3.9116   4.1313   4.6940   5.9758   6.0111

          k = 0.3750-0.2652 0.0000 ( 19919 PWs)   bands (ev):

   -45.3418 -44.5091 -44.1332 -43.8210 -43.7586 -43.7521 -43.7424  -3.3714
    -3.3469  -3.2603  -3.2469  -3.1859  -3.1363  -3.1206  -3.0946  -3.0347
    -2.9486  -2.8971  -2.7892  -2.7586  -2.7312  -2.6789  -2.6648  -2.5666
    -2.5198  -2.4722  -2.4182  -2.3689  -2.3464  -2.3246  -2.2636  -2.1005
    -2.0773  -1.8883  -1.8426  -1.7517  -1.7077  -0.5402  -0.2710   0.3057
     1.1730   1.2958   1.5870   2.3366   2.6718   2.9277   3.3292   3.5223
     3.7300   4.3879   4.7896   6.1047   6.1447

          k = 0.3750-0.1768 0.0000 ( 19944 PWs)   bands (ev):

   -45.3419 -44.5092 -44.1332 -43.8211 -43.7594 -43.7515 -43.7423  -3.3619
    -3.3328  -3.2943  -3.2594  -3.2386  -3.2197  -3.1954  -3.1129  -3.0871
    -3.0479  -3.0103  -2.9956  -2.7878  -2.7658  -2.7501  -2.7017  -2.6560
    -2.5698  -2.4783  -2.4014  -2.3720  -2.3201  -2.2275  -2.1620  -2.1066
    -2.0333  -1.8608  -1.7940  -1.7127  -1.6576  -0.9558  -0.7058  -0.1427
     0.9238   2.0516   2.5003   2.9877   3.1082   3.2450   3.3527   3.5509
     3.6233   4.7357   4.7679   5.7952   6.5056

          k = 0.3750-0.0884 0.0000 ( 19943 PWs)   bands (ev):

   -45.3419 -44.5092 -44.1332 -43.8212 -43.7601 -43.7509 -43.7422  -3.4464
    -3.3848  -3.3493  -3.3159  -3.2790  -3.2381  -3.2012  -3.1743  -3.1120
    -3.1026  -3.0801  -3.0612  -2.8992  -2.8206  -2.7886  -2.7378  -2.7262
    -2.5767  -2.5301  -2.4444  -2.4130  -2.2894  -2.1733  -2.0939  -2.0241
    -1.9557  -1.8247  -1.7669  -1.6880  -1.5757  -1.1736  -0.9020  -0.3584
     0.6674   1.8480   2.8552   3.0460   3.2446   3.6615   3.9462   4.3540
     4.5729   4.6868   5.2338   5.5315   6.7332

          k =-0.5000 0.0000 0.0000 ( 19974 PWs)   bands (ev):

   -45.3413 -44.5085 -44.1325 -43.8204 -43.7596 -43.7499 -43.7413  -3.4800
    -3.4668  -3.4351  -3.4220  -3.3331  -3.3009  -3.2533  -3.2172  -3.1691
    -3.1497  -3.1244  -3.0696  -2.9282  -2.9187  -2.8150  -2.7982  -2.7536
    -2.6993  -2.6088  -2.5504  -2.5037  -2.1960  -2.1838  -2.0200  -1.9338
    -1.8332  -1.7891  -1.5686  -1.5057  -1.4314   0.4299   0.6395   0.7714
     1.0764   1.1965   1.7537   1.8712   2.8413   3.1628   4.1635   4.2437
     5.1282   5.7389   5.7867   6.7005   6.9078

          k =-0.5000 0.0884 0.0000 ( 19948 PWs)   bands (ev):

   -45.3412 -44.5084 -44.1325 -43.8204 -43.7593 -43.7501 -43.7413  -3.4689
    -3.4310  -3.4050  -3.3760  -3.3422  -3.3043  -3.2477  -3.1880  -3.1628
    -3.1428  -3.0730  -3.0491  -2.9074  -2.8819  -2.8307  -2.7610  -2.7015
    -2.6598  -2.6074  -2.5221  -2.4863  -2.2756  -2.1319  -2.0424  -1.9882
    -1.9232  -1.7017  -1.6487  -1.4819  -1.4365   0.4660   0.6773   0.8893
     1.1267   1.2643   1.8153   1.8825   2.9141   3.0802   4.0564   4.2675
     4.9671   5.4246   5.4807   5.9899   6.2769

          k =-0.5000 0.1768 0.0000 ( 19956 PWs)   bands (ev):

   -45.3412 -44.5085 -44.1325 -43.8203 -43.7587 -43.7507 -43.7416  -3.4760
    -3.4438  -3.3607  -3.3207  -3.2563  -3.2210  -3.1988  -3.1713  -3.1690
    -3.0149  -2.9918  -2.9637  -2.8685  -2.8345  -2.7388  -2.6743  -2.6527
    -2.6254  -2.5571  -2.4733  -2.4389  -2.3078  -2.1924  -2.1342  -2.0694
    -1.9640  -1.7947  -1.5995  -1.4967  -1.4440   0.5992   0.8157   1.2287
     1.2956   1.4748   1.8920   2.0429   2.8246   3.0772   3.6270   3.8138
     4.0704   4.2948   5.1448   5.1681   5.7049

          k =-0.5000 0.2652 0.0000 ( 19924 PWs)   bands (ev):

   -45.3411 -44.5084 -44.1324 -43.8202 -43.7578 -43.7514 -43.7417  -3.4832
    -3.4563  -3.3628  -3.3485  -3.2221  -3.1821  -3.1435  -3.0803  -3.0060
    -2.9044  -2.8703  -2.8460  -2.8215  -2.7566  -2.6483  -2.6347  -2.5976
    -2.5519  -2.5466  -2.4307  -2.4017  -2.3938  -2.3387  -2.2408  -2.0450
    -1.9883  -1.7143  -1.6565  -1.5151  -1.4586   0.9069   1.1350   1.6273
     1.7416   1.8373   2.0164   2.3045   2.4960   2.5144   2.7117   3.0334
     3.1934   3.3955   4.7209   5.0126   5.4427

          k =-0.5000-0.3536 0.0000 ( 19904 PWs)   bands (ev):

   -45.3410 -44.5083 -44.1324 -43.8201 -43.7573 -43.7517 -43.7417  -3.4856
    -3.4616  -3.3709  -3.3515  -3.2184  -3.2027  -3.0948  -3.0184  -2.9258
    -2.8619  -2.8460  -2.8017  -2.7054  -2.6717  -2.6594  -2.6401  -2.5931
    -2.5389  -2.5251  -2.4902  -2.4178  -2.4057  -2.3821  -2.3163  -1.9644
    -1.9521  -1.7155  -1.6671  -1.5248  -1.4758   1.4823   1.5137   1.7130
     1.7680   2.0662   2.1725   2.1907   2.2413   2.2896   2.4207   2.5274
     2.7131   2.8859   4.6119   4.9576   5.2386

     the Fermi energy is     2.0100 ev

!    total energy              =    -609.97014371 Ry
     estimated scf accuracy    <          2.6E-09 Ry
     smearing contrib. (-TS)   =      -0.00178579 Ry
     internal energy E=F+TS    =    -609.96835792 Ry

     The total energy is F=E-TS. E is the sum of the following terms:
     one-electron contribution =   -6124.40382738 Ry
     hartree contribution      =    3102.76965002 Ry
     xc contribution           =    -159.37687152 Ry
     ewald contribution        =    2571.27489517 Ry
     DFT-D3 Dispersion         =      -0.23220420 Ry

     convergence has been achieved in   9 iterations

     negative rho (up, down):  1.453E-05 0.000E+00

     Forces acting on atoms (cartesian axes, Ry/au):

     atom    1 type  1   force =    -0.00048005   -0.00022345    0.00013745
     atom    2 type  1   force =    -0.00034306   -0.00018967   -0.00042441
     atom    3 type  1   force =    -0.00009710   -0.00024897   -0.00065755
     atom    4 type  1   force =     0.00036931    0.00011873   -0.00047086
     atom    5 type  1   force =     0.00030970   -0.00003217    0.00078399
     atom    6 type  1   force =     0.00012327   -0.00000181    0.00037458
     atom    7 type  2   force =    -0.00078088    0.00054780   -0.00020042
     atom    8 type  2   force =    -0.00018554    0.00025107    0.00006803
     atom    9 type  2   force =     0.00015527   -0.00035849    0.00082228
     atom   10 type  2   force =     0.00025976   -0.00006307    0.00068592
     atom   11 type  2   force =     0.00049501    0.00000441   -0.00018516
     atom   12 type  2   force =     0.00012669   -0.00001658   -0.00070869
     atom   13 type  2   force =     0.00004762    0.00021220   -0.00022515
     The non-local contrib.  to forces
     atom    1 type  1   force =     0.00176251   -0.00078395   -0.02473180
     atom    2 type  1   force =    -0.00027775    0.00033762   -0.00947916
     atom    3 type  1   force =     0.00051241   -0.00139468    0.00407379
     atom    4 type  1   force =    -0.00108312    0.00080429   -0.00197850
     atom    5 type  1   force =    -0.00052952    0.00089469    0.00555236
     atom    6 type  1   force =    -0.00001074    0.00073455   -0.03075931
     atom    7 type  2   force =    -0.00036878    0.00073997    0.02399834
     atom    8 type  2   force =    -0.00004500   -0.00077815    0.00094527
     atom    9 type  2   force =     0.00022767    0.00071067    0.00127118
     atom   10 type  2   force =    -0.00003137   -0.00011392   -0.00122508
     atom   11 type  2   force =     0.00014867   -0.00003066   -0.00343126
     atom   12 type  2   force =    -0.00004762   -0.00012765   -0.04326658
     atom   13 type  2   force =     0.00013198    0.00026653    0.06473813
     The ionic contribution  to forces
     atom    1 type  1   force =     0.01267033    0.09649291  103.11325142
     atom    2 type  1   force =    -0.00961467    0.23426140   62.96272222
     atom    3 type  1   force =     0.00777477   -0.30880937   17.21290859
     atom    4 type  1   force =    -0.01072739   -0.01773909  -25.58551660
     atom    5 type  1   force =     0.00301108   -0.01618153  -71.53056984
     atom    6 type  1   force =    -0.00412216    0.00234509 -112.26784844
     atom    7 type  2   force =    -0.02439270    0.00065780   30.23202936
     atom    8 type  2   force =    -0.00311842   -0.09934017   16.23180717
     atom    9 type  2   force =     0.00187158    0.10339487    5.39378166
     atom   10 type  2   force =     0.00911129    0.00282045   -7.71601786
     atom   11 type  2   force =     0.01148162    0.00679927  -18.52480893
     atom   12 type  2   force =     0.00472288   -0.00122897  -32.59083084
     atom   13 type  2   force =     0.00133180   -0.00347268   33.06909210
     The local contribution  to forces
     atom    1 type  1   force =    -0.01514968   -0.09573249 -103.08432227
     atom    2 type  1   force =     0.00948254   -0.23447951  -62.95152884
     atom    3 type  1   force =    -0.00843055    0.30943453  -17.21652297
     atom    4 type  1   force =     0.01231348    0.01698393   25.58551534
     atom    5 type  1   force =    -0.00208038    0.01521665   71.52309120
     atom    6 type  1   force =     0.00430036   -0.00307842  112.28894683
     atom    7 type  2   force =     0.02394788   -0.00079625  -30.25461880
     atom    8 type  2   force =     0.00299835    0.10043832  -16.23114854
     atom    9 type  2   force =    -0.00195052   -0.10454179   -5.39423767
     atom   10 type  2   force =    -0.00880148   -0.00278122    7.71789251
     atom   11 type  2   force =    -0.01112725   -0.00676326   18.52601800
     atom   12 type  2   force =    -0.00453860    0.00133998   32.63161253
     atom   13 type  2   force =    -0.00140135    0.00341463  -33.13164958
     The core correction contribution to forces
     atom    1 type  1   force =     0.00005967   -0.00006397    0.00019834
     atom    2 type  1   force =     0.00004784   -0.00004261   -0.00033108
     atom    3 type  1   force =     0.00001090    0.00008607    0.00000069
     atom    4 type  1   force =    -0.00004304    0.00004090    0.00023136
     atom    5 type  1   force =    -0.00004782    0.00002542    0.00014834
     atom    6 type  1   force =    -0.00001664   -0.00000202    0.00506053
     atom    7 type  2   force =     0.00000000    0.00000000    0.00000000
     atom    8 type  2   force =     0.00000000    0.00000000    0.00000000
     atom    9 type  2   force =     0.00000000    0.00000000    0.00000000
     atom   10 type  2   force =     0.00000000    0.00000000    0.00000000
     atom   11 type  2   force =     0.00000000    0.00000000    0.00000000
     atom   12 type  2   force =     0.00000000    0.00000000    0.00000000
     atom   13 type  2   force =     0.00000000    0.00000000    0.00000000
     The Hubbard contrib.    to forces
     atom    1 type  1   force =     0.00000000    0.00000000    0.00000000
     atom    2 type  1   force =     0.00000000    0.00000000    0.00000000
     atom    3 type  1   force =     0.00000000    0.00000000    0.00000000
     atom    4 type  1   force =     0.00000000    0.00000000    0.00000000
     atom    5 type  1   force =     0.00000000    0.00000000    0.00000000
     atom    6 type  1   force =     0.00000000    0.00000000    0.00000000
     atom    7 type  2   force =     0.00000000    0.00000000    0.00000000
     atom    8 type  2   force =     0.00000000    0.00000000    0.00000000
     atom    9 type  2   force =     0.00000000    0.00000000    0.00000000
     atom   10 type  2   force =     0.00000000    0.00000000    0.00000000
     atom   11 type  2   force =     0.00000000    0.00000000    0.00000000
     atom   12 type  2   force =     0.00000000    0.00000000    0.00000000
     atom   13 type  2   force =     0.00000000    0.00000000    0.00000000
     The SCF correction term to forces
     atom    1 type  1   force =     0.00009027   -0.00001037    0.00001130
     atom    2 type  1   force =     0.00001594    0.00003626    0.00003887
     atom    3 type  1   force =     0.00000485    0.00004561   -0.00002302
     atom    4 type  1   force =    -0.00001937    0.00000131   -0.00005806
     atom    5 type  1   force =    -0.00000972   -0.00000367   -0.00005172
     atom    6 type  1   force =    -0.00000133    0.00000036   -0.00001240
     atom    7 type  2   force =    -0.00001047    0.00000327    0.00000174
     atom    8 type  2   force =    -0.00000628   -0.00000730    0.00000637
     atom    9 type  2   force =     0.00000061   -0.00001058   -0.00001025
     atom   10 type  2   force =     0.00000305    0.00000097    0.00001193
     atom   11 type  2   force =     0.00000234    0.00000065   -0.00000202
     atom   12 type  2   force =     0.00000071    0.00000005   -0.00000527
     atom   13 type  2   force =    -0.00001201    0.00000588    0.00000127

     DFT-D3 dispersion contribution to forces:
     atom    1 type  1   force =     0.00008852   -0.00012401   -0.00427170
     atom    2 type  1   force =     0.00000470   -0.00030124   -0.00184857
     atom    3 type  1   force =     0.00003219    0.00039045   -0.00109678
     atom    4 type  1   force =    -0.00006959    0.00002898    0.00133345
     atom    5 type  1   force =    -0.00003229    0.00001785    0.00261151
     atom    6 type  1   force =    -0.00002456    0.00000022    0.00498523
     atom    7 type  2   force =     0.00004486   -0.00005540   -0.00161321
     atom    8 type  2   force =    -0.00001253   -0.00006005   -0.00154440
     atom    9 type  2   force =     0.00000758    0.00008993    0.00001520
     atom   10 type  2   force =    -0.00002005    0.00001223    0.00002227
     atom   11 type  2   force =    -0.00000870    0.00000001    0.00203689
     atom   12 type  2   force =    -0.00000901    0.00000160    0.00177933
     atom   13 type  2   force =    -0.00000114   -0.00000057   -0.00240922

     Total force =     0.002386     Total SCF correction =     0.000147


     Computing stress (Cartesian axis) and pressure


     negative rho (up, down):  1.453E-05 0.000E+00
          total   stress  (Ry/bohr**3)                   (kbar)     P=      -11.93
  -0.00008449   0.00000041  -0.00000855          -12.43        0.06       -1.26
   0.00000041  -0.00009648   0.00000201            0.06      -14.19        0.30
  -0.00000855   0.00000201  -0.00006236           -1.26        0.30       -9.17

     Energy error            =      4.6E-05 Ry
     Gradient error          =      8.2E-04 Ry/Bohr

     bfgs converged in  41 scf cycles and  40 bfgs steps
     (criteria: energy <  1.0E-04 Ry, force <  1.0E-03 Ry/Bohr)

     End of BFGS Geometry Optimization

     Final energy             =    -609.9701437085 Ry

     File ./LiAg_mp-2426_110_bridge_0/LiAg_mp-2426_110_bridge_0.bfgs deleted, as requested
Begin final coordinates

ATOMIC_POSITIONS (angstrom)
Ag            0.9092170436        0.8833882560       20.8948627577
Ag            0.8800370692        3.1290846891       18.8746154660
Ag            0.8469630675        1.0810079537       16.5504491546
Ag            0.8071430970        3.3046012401       14.4834604634
Ag            0.7878592673        1.1026421464       12.1563252180
Ag            0.7793773292        3.3109867008       10.1943929069
Li            2.4771802776        3.0862412532       21.1852756531
Li            2.4417241774        0.9302010013       18.7147803745
Li            2.4051198739        3.2819185537       16.6693359727
Li            2.3698668692        1.0960988736       14.3443297324
Li            2.3470821289        3.3094757912       12.3110418217
Li            2.3403478724        1.1031618476        9.8358450278
Li            2.4672557438        0.8785284756       23.0891233141
End final coordinates



     Writing all to output data dir ./LiAg_mp-2426_110_bridge_0/LiAg_mp-2426_110_bridge_0.save/

     init_run     :      6.55s CPU      7.25s WALL (       1 calls)
     electrons    :    218.96s CPU    251.86s WALL (      41 calls)
     update_pot   :      9.68s CPU     10.25s WALL (      40 calls)
     forces       :      9.46s CPU     10.95s WALL (      41 calls)
     force_dftd3  :      0.45s CPU      0.75s WALL (      41 calls)
     stress       :     41.65s CPU     43.14s WALL (      41 calls)
     stres_dftd3  :      0.42s CPU      0.66s WALL (      41 calls)

     Called by init_run:
     wfcinit      :      0.59s CPU      0.99s WALL (       1 calls)
     potinit      :      2.14s CPU      2.18s WALL (       1 calls)
     hinit0       :      3.70s CPU      3.94s WALL (       1 calls)

     Called by electrons:
     c_bands      :    184.58s CPU    207.33s WALL (     379 calls)
     sum_band     :     26.51s CPU     30.49s WALL (     379 calls)
     v_of_rho     :      3.61s CPU      4.85s WALL (     404 calls)
     newd         :      2.33s CPU      2.53s WALL (     404 calls)
     mix_rho      :      0.48s CPU      0.51s WALL (     379 calls)
     energy_dftd3 :      0.12s CPU      0.12s WALL (      41 calls)

     Called by c_bands:
     init_us_2    :      1.11s CPU      1.21s WALL (    7569 calls)
     init_us_2:cp :      1.10s CPU      1.20s WALL (    7569 calls)
     cegterg      :    174.94s CPU    190.52s WALL (    3411 calls)

     Called by *egterg:
     cdiaghg      :     43.07s CPU     43.44s WALL (   13333 calls)
     h_psi        :    103.60s CPU    115.72s WALL (   13846 calls)
     s_psi        :      5.34s CPU      5.45s WALL (   13846 calls)
     g_psi        :      0.33s CPU      0.34s WALL (   10426 calls)

     Called by h_psi:
     h_psi:calbec :      9.55s CPU     12.15s WALL (   13846 calls)
     vloc_psi     :     88.53s CPU     97.84s WALL (   13846 calls)
     add_vuspsi   :      5.22s CPU      5.44s WALL (   13846 calls)

     General routines
     calbec       :     16.20s CPU     19.55s WALL (   19102 calls)
     fft          :      8.15s CPU      9.87s WALL (    6251 calls)
     ffts         :      2.28s CPU      2.69s WALL (     783 calls)
     fftw         :     97.50s CPU    107.66s WALL ( 1106693 calls)
     interpolate  :      2.34s CPU      2.62s WALL (     404 calls)

     Parallel routines

     PWSCF        :   4m47.73s CPU   5m26.76s WALL


   This run was terminated on:   7:27:38   6Aug2025            

=------------------------------------------------------------------------------=
   JOB DONE.
=------------------------------------------------------------------------------=
[1754476059.058404] [rome25:873361:0]           flush.c:57   UCX  ERROR req 0x2edea80: error during flush: Connection reset by remote peer
[1754476059.058437] [rome25:873361:0]           flush.c:57   UCX  ERROR req 0x2edea80: error during flush: Connection reset by remote peer
[1754476059.115658] [rome25:873359:0]           flush.c:57   UCX  ERROR req 0x2edd040: error during flush: Connection reset by remote peer
[1754476059.115980] [rome25:873359:0]           flush.c:57   UCX  ERROR req 0x2edd040: error during flush: Connection reset by remote peer
