
     Program PWSCF v.7.2 starts on  6Aug2025 at  7:28: 2 

     This program is part of the open-source Quantum ESPRESSO suite
     for quantum simulation of materials; please cite
         "P. Giannozzi et al., J. Phys.:Condens. Matter 21 395502 (2009);
         "P. Giannozzi et al., J. Phys.:Condens. Matter 29 465901 (2017);
         "P. Giannozzi et al., J. Chem. Phys. 152 154105 (2020);
          URL http://www.quantum-espresso.org", 
     in publications or presentations arising from this work. More details at
     http://www.quantum-espresso.org/quote

     Parallel version (MPI & OpenMP), running on     256 processor cores
     Number of MPI processes:               256
     Threads/MPI process:                     1

     MPI processes distributed on     4 nodes
     241852 MiB available memory on the printing compute node when the environment starts

     Reading input from LiAg_mp-2426_111_bridge_0.in

     Current dimensions of program PWSCF are:
     Max number of different atomic species (ntypx) = 10
     Max number of k-points (npk) =  40000
     Max angular momentum in pseudopotentials (lmaxx) =  4
     Message from routine iosys:
     restart disabled: needed files not found

     K-points division:     npool     =       4
     R & G space division:  proc/nbgrp/npool/nimage =      64
     Subspace diagonalization in iterative solution of the eigenvalue problem:
     a serial algorithm will be used


     Parallelization info
     --------------------
     sticks:   dense  smooth     PW     G-vecs:    dense   smooth      PW
     Min          37      16      4                 8235     2392     362
     Max          38      17      5                 8258     2433     403
     Sum        2407    1057    313               527639   153843   24959

     Using Slab Decomposition



     bravais-lattice index     =            0
     lattice parameter (alat)  =       8.3454  a.u.
     unit-cell volume          =    2793.3427 (a.u.)^3
     number of atoms/cell      =            7
     number of atomic types    =            2
     number of electrons       =        45.00
     number of Kohn-Sham states=           28
     kinetic-energy cutoff     =      55.0000  Ry
     charge density cutoff     =     500.0000  Ry
     scf convergence threshold =      1.0E-06
     mixing beta               =       0.3000
     number of iterations used =            8  plain     mixing
     energy convergence thresh.=      1.0E-04
     force convergence thresh. =      1.0E-03
     Exchange-correlation= PBE
                           (   1   4   3   4   0   0   0)
     nstep                     =          500


     celldm(1)=   8.345450  celldm(2)=   0.000000  celldm(3)=   0.000000
     celldm(4)=   0.000000  celldm(5)=   0.000000  celldm(6)=   0.000000

     crystal axes: (cart. coord. in units of alat)
               a(1) = (   1.000000   0.000000   0.000000 )  
               a(2) = (   0.500000   0.866025   0.000000 )  
               a(3) = (   0.000000   0.000000   5.549379 )  

     reciprocal axes: (cart. coord. in units 2 pi/alat)
               b(1) = (  1.000000 -0.577350  0.000000 )  
               b(2) = (  0.000000  1.154701  0.000000 )  
               b(3) = ( -0.000000 -0.000000  0.180200 )  


     PseudoPot. # 1 for Ag read from file:
     /home/ecastro/trabajo_final/pseudos/Ag.pbe-n-rrkjus_psl.1.0.0.UPF
     MD5 check sum: 81cdf87bacf708300839c66ee23ce017
     Pseudo is Ultrasoft + core correction, Zval = 11.0
     Generated using &quot;atomic&quot; code by A. Dal Corso  v.6.2.2
     Using radial grid of 1237 points,  6 beta functions with: 
                l(1) =   0
                l(2) =   0
                l(3) =   1
                l(4) =   1
                l(5) =   2
                l(6) =   2
     Q(r) pseudized with 0 coefficients 


     PseudoPot. # 2 for Li read from file:
     /home/ecastro/trabajo_final/pseudos/Li.pbe-s-rrkjus_psl.1.0.0.UPF
     MD5 check sum: 9f98d2529904d60b716d33989e9bc179
     Pseudo is Ultrasoft, Zval =  3.0
     Generated using &quot;atomic&quot; code by A. Dal Corso  v.6.3MaX
     Using radial grid of 1017 points,  4 beta functions with: 
                l(1) =   0
                l(2) =   0
                l(3) =   1
                l(4) =   1
     Q(r) pseudized with 0 coefficients 


     atomic species   valence    mass     pseudopotential
        Ag            11.00   107.86820     Ag( 1.00)
        Li             3.00     6.94100     Li( 1.00)

     No symmetry found



   Cartesian axes

     site n.     atom                  positions (alat units)
         1           Ag  tau(   1) = (   0.2500048   0.1443394   3.2487074  )
         2           Ag  tau(   2) = (   0.7500000   0.4330127   2.8767515  )
         3           Ag  tau(   3) = (   1.2500000   0.7216878   2.4685032  )
         4           Li  tau(   4) = (   1.2500020   0.7216887   3.0939233  )
         5           Li  tau(   5) = (   0.2500000   0.1443376   2.6726274  )
         6           Li  tau(   6) = (   0.7500000   0.4330127   2.2643791  )
         7           Li  tau(   7) = (   1.0000020   0.2886760   3.7015832  )

     --------------------------------------------
     DFT-D3 Dispersion Correction (no 3-body):
     --------------------------------------------
       Reference C6 values for interpolation: 

         atom   Coordination number   C6
         Li         0.000          2326.89
         Li         0.987           170.64
         Ag         0.000           853.49
         Ag         0.968           537.23

       Values used:

         atom   Coordination number  R0_AB[au]  C6      C8
         Ag         6.655            3.147    537.23  47741.54
         Ag         9.511            3.147    537.23  47741.54
         Ag         7.852            3.147    537.23  47741.54
         Li         8.761            3.303    170.64  12899.87
         Li        10.116            3.303    170.64  12899.87
         Li         5.641            3.303    170.64  12899.87
         Li         1.673            3.303    170.71  12905.24

         Molecular C6 ( Ry / a.u.^6 ) =     14509.12


     number of k points=    34  Methfessel-Paxton smearing, width (Ry)=  0.0300
                       cart. coord. in units 2pi/alat
        k(    1) = (   0.0000000   0.0000000   0.0000000), wk =   0.0312500
        k(    2) = (   0.0000000   0.1443376   0.0000000), wk =   0.0625000
        k(    3) = (   0.0000000   0.2886751   0.0000000), wk =   0.0625000
        k(    4) = (   0.0000000   0.4330127   0.0000000), wk =   0.0625000
        k(    5) = (   0.0000000  -0.5773503   0.0000000), wk =   0.0312500
        k(    6) = (   0.1250000  -0.0721688   0.0000000), wk =   0.0625000
        k(    7) = (   0.1250000   0.0721688   0.0000000), wk =   0.0625000
        k(    8) = (   0.1250000   0.2165064   0.0000000), wk =   0.0625000
        k(    9) = (   0.1250000   0.3608439   0.0000000), wk =   0.0625000
        k(   10) = (   0.1250000  -0.6495191   0.0000000), wk =   0.0625000
        k(   11) = (   0.1250000  -0.5051815   0.0000000), wk =   0.0625000
        k(   12) = (   0.1250000  -0.3608439   0.0000000), wk =   0.0625000
        k(   13) = (   0.1250000  -0.2165064   0.0000000), wk =   0.0625000
        k(   14) = (   0.2500000  -0.1443376   0.0000000), wk =   0.0625000
        k(   15) = (   0.2500000   0.0000000   0.0000000), wk =   0.0625000
        k(   16) = (   0.2500000   0.1443376   0.0000000), wk =   0.0625000
        k(   17) = (   0.2500000   0.2886751   0.0000000), wk =   0.0625000
        k(   18) = (   0.2500000  -0.7216878   0.0000000), wk =   0.0625000
        k(   19) = (   0.2500000  -0.5773503   0.0000000), wk =   0.0625000
        k(   20) = (   0.2500000  -0.4330127   0.0000000), wk =   0.0625000
        k(   21) = (   0.2500000  -0.2886751   0.0000000), wk =   0.0625000
        k(   22) = (   0.3750000  -0.2165064   0.0000000), wk =   0.0625000
        k(   23) = (   0.3750000  -0.0721688   0.0000000), wk =   0.0625000
        k(   24) = (   0.3750000   0.0721688   0.0000000), wk =   0.0625000
        k(   25) = (   0.3750000   0.2165064   0.0000000), wk =   0.0625000
        k(   26) = (   0.3750000  -0.7938566   0.0000000), wk =   0.0625000
        k(   27) = (   0.3750000  -0.6495191   0.0000000), wk =   0.0625000
        k(   28) = (   0.3750000  -0.5051815   0.0000000), wk =   0.0625000
        k(   29) = (   0.3750000  -0.3608439   0.0000000), wk =   0.0625000
        k(   30) = (  -0.5000000   0.2886751   0.0000000), wk =   0.0312500
        k(   31) = (  -0.5000000   0.4330127   0.0000000), wk =   0.0625000
        k(   32) = (  -0.5000000   0.5773503   0.0000000), wk =   0.0625000
        k(   33) = (  -0.5000000   0.7216878   0.0000000), wk =   0.0625000
        k(   34) = (  -0.5000000  -0.2886751   0.0000000), wk =   0.0312500

     Dense  grid:   527639 G-vectors     FFT dimensions: (  60,  60, 360)

     Smooth grid:   153843 G-vectors     FFT dimensions: (  40,  40, 225)

     Estimated max dynamical RAM per process >      16.75 MB

     Estimated total dynamical RAM >       3.81 GB
     Cannot read rho : file not found

     Initial potential from superposition of free atoms

     starting charge      44.9804, renormalised to      45.0000

     negative rho (up, down):  4.983E-05 0.000E+00
     Message from routine qexsd_readschema :
     xml data file ./LiAg_mp-2426_111_bridge_0/LiAg_mp-2426_111_bridge_0.save/data-fi
     Cannot read wfcs: file not found
     Starting wfcs are   47 randomized atomic wfcs

     total cpu time spent up to now is        6.7 secs

     per-process dynamical memory:   173.6 Mb

     Self-consistent Calculation

     iteration #  1     ecut=    55.00 Ry     beta= 0.30
     Davidson diagonalization with overlap
     c_bands:  2 eigenvalues not converged
     ethr =  1.00E-05,  avg # of iterations = 16.4

     negative rho (up, down):  4.038E-05 0.000E+00

     total cpu time spent up to now is        7.8 secs

     total energy              =    -312.09632290 Ry
     estimated scf accuracy    <       0.69900475 Ry

     iteration #  2     ecut=    55.00 Ry     beta= 0.30
     Davidson diagonalization with overlap
     ethr =  1.55E-03,  avg # of iterations =  5.3

     negative rho (up, down):  1.183E-04 0.000E+00

     total cpu time spent up to now is        8.1 secs

     total energy              =    -311.98472121 Ry
     estimated scf accuracy    <       2.66316190 Ry

     iteration #  3     ecut=    55.00 Ry     beta= 0.30
     Davidson diagonalization with overlap
     ethr =  1.55E-03,  avg # of iterations =  2.9

     negative rho (up, down):  1.321E-04 0.000E+00

     total cpu time spent up to now is        8.5 secs

     total energy              =    -312.24621763 Ry
     estimated scf accuracy    <       0.93821376 Ry

     iteration #  4     ecut=    55.00 Ry     beta= 0.30
     Davidson diagonalization with overlap
     ethr =  1.55E-03,  avg # of iterations =  1.0

     negative rho (up, down):  1.030E-04 0.000E+00

     total cpu time spent up to now is        8.8 secs

     total energy              =    -312.28415114 Ry
     estimated scf accuracy    <       0.05677471 Ry

     iteration #  5     ecut=    55.00 Ry     beta= 0.30
     Davidson diagonalization with overlap
     ethr =  1.26E-04,  avg # of iterations =  2.8

     negative rho (up, down):  4.102E-05 0.000E+00

     total cpu time spent up to now is        9.1 secs

     total energy              =    -312.28112019 Ry
     estimated scf accuracy    <       0.01734608 Ry

     iteration #  6     ecut=    55.00 Ry     beta= 0.30
     Davidson diagonalization with overlap
     ethr =  3.85E-05,  avg # of iterations =  7.8

     negative rho (up, down):  3.451E-05 0.000E+00

     total cpu time spent up to now is        9.5 secs

     total energy              =    -312.28340012 Ry
     estimated scf accuracy    <       0.00424235 Ry

     iteration #  7     ecut=    55.00 Ry     beta= 0.30
     Davidson diagonalization with overlap
     ethr =  9.43E-06,  avg # of iterations =  2.2

     negative rho (up, down):  5.527E-05 0.000E+00

     total cpu time spent up to now is        9.8 secs

     total energy              =    -312.28397958 Ry
     estimated scf accuracy    <       0.00092394 Ry

     iteration #  8     ecut=    55.00 Ry     beta= 0.30
     Davidson diagonalization with overlap
     ethr =  2.05E-06,  avg # of iterations =  4.5

     negative rho (up, down):  6.085E-05 0.000E+00

     total cpu time spent up to now is       10.1 secs

     total energy              =    -312.28410614 Ry
     estimated scf accuracy    <       0.00007499 Ry

     iteration #  9     ecut=    55.00 Ry     beta= 0.30
     Davidson diagonalization with overlap
     ethr =  1.67E-07,  avg # of iterations =  2.7

     negative rho (up, down):  4.953E-05 0.000E+00

     total cpu time spent up to now is       10.4 secs

     total energy              =    -312.28412054 Ry
     estimated scf accuracy    <       0.00001085 Ry

     iteration # 10     ecut=    55.00 Ry     beta= 0.30
     Davidson diagonalization with overlap
     ethr =  2.41E-08,  avg # of iterations =  4.8

     negative rho (up, down):  3.493E-05 0.000E+00

     total cpu time spent up to now is       10.7 secs

     total energy              =    -312.28412264 Ry
     estimated scf accuracy    <       0.00000311 Ry

     iteration # 11     ecut=    55.00 Ry     beta= 0.30
     Davidson diagonalization with overlap
     ethr =  6.90E-09,  avg # of iterations =  2.1

     negative rho (up, down):  1.525E-05 0.000E+00

     total cpu time spent up to now is       10.9 secs

     End of self-consistent calculation

          k = 0.0000 0.0000 0.0000 ( 19117 PWs)   bands (ev):

   -48.0675 -46.9653 -46.1624 -46.0175  -5.7208  -5.3796  -5.3537  -5.2290
    -5.2208  -5.1922  -4.8088  -4.7207  -4.7070  -4.5124  -4.4622  -4.1419
    -4.0809  -4.0609  -3.7537  -3.7259  -3.3913  -1.2881   0.0675   1.5630
     2.5349   2.7156   3.7106   4.1036

          k = 0.0000 0.1443 0.0000 ( 19191 PWs)   bands (ev):

   -48.0676 -46.9654 -46.1625 -46.0176  -5.6202  -5.3554  -5.3242  -5.2294
    -5.1832  -5.1381  -4.7816  -4.7143  -4.6716  -4.5163  -4.4621  -4.1696
    -4.1099  -4.0565  -3.8679  -3.7380  -3.2082  -1.1365   0.2090   1.6994
     2.5616   2.6909   2.8946   3.0926

          k = 0.0000 0.2887 0.0000 ( 19227 PWs)   bands (ev):

   -48.0676 -46.9654 -46.1625 -46.0176  -5.4379  -5.2827  -5.2387  -5.2024
    -5.0632  -5.0033  -4.7500  -4.6570  -4.5841  -4.5139  -4.4082  -4.2349
    -4.1956  -4.0926  -4.0271  -3.7590  -2.7346  -0.7073   0.3577   0.9146
     1.9573   2.1147   2.4017   3.1544

          k = 0.0000 0.4330 0.0000 ( 19265 PWs)   bands (ev):

   -48.0676 -46.9654 -46.1624 -46.0176  -5.3820  -5.2103  -5.1682  -5.0613
    -4.9179  -4.8464  -4.7380  -4.6072  -4.5251  -4.4986  -4.4556  -4.3353
    -4.3169  -4.0463  -3.7766  -3.7276  -2.0730  -1.0950   0.0335   0.5668
     1.2378   1.5812   2.4733   3.0553

          k = 0.0000-0.5774 0.0000 ( 19296 PWs)   bands (ev):

   -48.0677 -46.9654 -46.1624 -46.0177  -5.3743  -5.1867  -5.1403  -4.9658
    -4.8479  -4.7841  -4.6921  -4.5998  -4.5641  -4.5306  -4.4744  -4.4209
    -4.3867  -4.0355  -3.7772  -2.8444  -2.6316  -0.8788  -0.5827   0.6169
     0.9854   1.6194   2.5525   2.6575

          k = 0.1250-0.0722 0.0000 ( 19191 PWs)   bands (ev):

   -48.0676 -46.9654 -46.1625 -46.0176  -5.6308  -5.3551  -5.3198  -5.2053
    -5.1845  -5.1516  -4.7682  -4.7025  -4.6889  -4.5078  -4.4732  -4.1529
    -4.1005  -4.0885  -3.8542  -3.7621  -3.1996  -1.1405   0.2161   1.6828
     2.5267   2.7309   2.8964   3.0735

          k = 0.1250 0.0722 0.0000 ( 19191 PWs)   bands (ev):

   -48.0676 -46.9654 -46.1625 -46.0176  -5.6202  -5.3554  -5.3242  -5.2294
    -5.1832  -5.1381  -4.7816  -4.7143  -4.6716  -4.5163  -4.4621  -4.1696
    -4.1099  -4.0565  -3.8679  -3.7380  -3.2082  -1.1365   0.2090   1.6993
     2.5616   2.6909   2.8945   3.0926

          k = 0.1250 0.2165 0.0000 ( 19214 PWs)   bands (ev):

   -48.0676 -46.9654 -46.1625 -46.0176  -5.4574  -5.3042  -5.2711  -5.1967
    -5.1641  -5.0256  -4.7408  -4.6853  -4.6179  -4.5421  -4.4124  -4.2451
    -4.1223  -4.0620  -4.0120  -3.7595  -2.8897  -0.8382   0.4478   1.4340
     1.7163   2.0642   2.9595   3.1363

          k = 0.1250 0.3608 0.0000 ( 19244 PWs)   bands (ev):

   -48.0676 -46.9654 -46.1624 -46.0176  -5.3379  -5.2109  -5.1851  -5.1299
    -5.0296  -4.9064  -4.7055  -4.6041  -4.5784  -4.5581  -4.4143  -4.2604
    -4.1697  -4.0940  -4.0081  -3.7658  -2.2958  -0.4584  -0.0944   0.6814
     1.1192   1.8176   2.5128   2.9873

          k = 0.1250-0.6495 0.0000 ( 19267 PWs)   bands (ev):

   -48.0676 -46.9654 -46.1624 -46.0176  -5.3180  -5.1467  -5.1406  -5.0058
    -4.8801  -4.8261  -4.7234  -4.6216  -4.5468  -4.5073  -4.4692  -4.3909
    -4.2988  -4.0645  -3.9031  -3.1565  -2.0837  -1.1582  -0.0787   0.4850
     0.5998   1.7926   2.3090   2.7225

          k = 0.1250-0.5052 0.0000 ( 19267 PWs)   bands (ev):

   -48.0676 -46.9654 -46.1624 -46.0176  -5.3202  -5.1698  -5.1229  -5.0198
    -4.9333  -4.7329  -4.6757  -4.6238  -4.5653  -4.5098  -4.4749  -4.4072
    -4.3110  -4.0674  -3.9069  -3.1578  -2.0801  -1.1474  -0.1473   0.4546
     0.6717   1.8726   2.3000   2.5480

          k = 0.1250-0.3608 0.0000 ( 19244 PWs)   bands (ev):

   -48.0676 -46.9654 -46.1624 -46.0176  -5.3530  -5.2540  -5.1813  -5.1207
    -5.0164  -4.8313  -4.7010  -4.6626  -4.5537  -4.4813  -4.4223  -4.2795
    -4.2125  -4.1109  -4.0019  -3.7797  -2.2787  -0.5009  -0.0896   0.6591
     1.1389   1.8278   2.4601   3.0060

          k = 0.1250-0.2165 0.0000 ( 19214 PWs)   bands (ev):

   -48.0676 -46.9654 -46.1625 -46.0176  -5.4924  -5.3224  -5.2464  -5.1770
    -5.1417  -5.0210  -4.7318  -4.6912  -4.6148  -4.5010  -4.4458  -4.2135
    -4.1602  -4.0718  -4.0153  -3.7818  -2.8759  -0.8515   0.4658   1.4322
     1.6369   2.0695   2.9844   3.1227

          k = 0.2500-0.1443 0.0000 ( 19227 PWs)   bands (ev):

   -48.0676 -46.9654 -46.1625 -46.0176  -5.4962  -5.2494  -5.2378  -5.1697
    -5.0436  -5.0116  -4.7336  -4.6222  -4.6215  -4.4871  -4.4215  -4.2282
    -4.1704  -4.1317  -4.0508  -3.7833  -2.7214  -0.7231   0.3866   0.8686
     1.9719   2.0391   2.3921   3.1534

          k = 0.2500 0.0000 0.0000 ( 19214 PWs)   bands (ev):

   -48.0676 -46.9654 -46.1625 -46.0176  -5.4924  -5.3224  -5.2464  -5.1770
    -5.1417  -5.0210  -4.7318  -4.6912  -4.6148  -4.5010  -4.4458  -4.2135
    -4.1602  -4.0718  -4.0153  -3.7818  -2.8759  -0.8515   0.4658   1.4322
     1.6369   2.0695   2.9843   3.1228

          k = 0.2500 0.1443 0.0000 ( 19227 PWs)   bands (ev):

   -48.0676 -46.9654 -46.1625 -46.0176  -5.4379  -5.2827  -5.2387  -5.2024
    -5.0632  -5.0033  -4.7500  -4.6570  -4.5841  -4.5139  -4.4082  -4.2349
    -4.1956  -4.0926  -4.0271  -3.7590  -2.7345  -0.7073   0.3577   0.9146
     1.9573   2.1147   2.4017   3.1544

          k = 0.2500 0.2887 0.0000 ( 19244 PWs)   bands (ev):

   -48.0676 -46.9654 -46.1624 -46.0176  -5.3379  -5.2109  -5.1851  -5.1299
    -5.0296  -4.9064  -4.7055  -4.6041  -4.5784  -4.5581  -4.4143  -4.2604
    -4.1697  -4.0940  -4.0081  -3.7658  -2.2958  -0.4583  -0.0944   0.6814
     1.1192   1.8177   2.5128   2.9873

          k = 0.2500-0.7217 0.0000 ( 19252 PWs)   bands (ev):

   -48.0676 -46.9653 -46.1623 -46.0176  -5.1972  -5.1623  -5.1276  -5.0330
    -5.0017  -4.8239  -4.6914  -4.6258  -4.5521  -4.5325  -4.4685  -4.3205
    -4.1978  -4.1092  -4.0594  -3.2728  -1.7317  -1.0807  -0.3869   0.5134
     1.0893   1.2191   2.2145   2.5889

          k = 0.2500-0.5774 0.0000 ( 19252 PWs)   bands (ev):

   -48.0676 -46.9653 -46.1623 -46.0176  -5.1770  -5.1060  -5.0828  -5.0153
    -4.9598  -4.8638  -4.6370  -4.5985  -4.5403  -4.5085  -4.4310  -4.3713
    -4.2702  -4.1761  -4.0992  -2.3430  -2.3224  -1.3576  -0.1289   0.1409
     0.9920   1.2696   1.8470   2.6117

          k = 0.2500-0.4330 0.0000 ( 19252 PWs)   bands (ev):

   -48.0676 -46.9653 -46.1623 -46.0176  -5.2589  -5.1775  -5.1234  -5.0186
    -4.9866  -4.7137  -4.6867  -4.6007  -4.5630  -4.5343  -4.4458  -4.3634
    -4.2104  -4.1345  -4.0758  -3.2813  -1.6771  -1.1467  -0.4222   0.4758
     1.1084   1.3033   2.0881   2.5491

          k = 0.2500-0.2887 0.0000 ( 19244 PWs)   bands (ev):

   -48.0676 -46.9654 -46.1624 -46.0176  -5.4102  -5.2263  -5.1523  -5.1065
    -5.0123  -4.8365  -4.7051  -4.6262  -4.5781  -4.4835  -4.4101  -4.2790
    -4.1634  -4.1342  -4.0500  -3.7898  -2.2709  -0.5051  -0.1230   0.7086
     1.1346   1.7220   2.4662   2.9560

          k = 0.3750-0.2165 0.0000 ( 19265 PWs)   bands (ev):

   -48.0676 -46.9654 -46.1624 -46.0176  -5.4520  -5.1854  -5.1708  -5.0174
    -4.8771  -4.8372  -4.7193  -4.5897  -4.5522  -4.4680  -4.4667  -4.3282
    -4.2986  -4.0883  -3.8012  -3.7633  -2.0382  -1.1380  -0.0191   0.6316
     1.2309   1.4419   2.3369   3.1661

          k = 0.3750-0.0722 0.0000 ( 19244 PWs)   bands (ev):

   -48.0676 -46.9654 -46.1624 -46.0176  -5.4102  -5.2263  -5.1523  -5.1065
    -5.0123  -4.8366  -4.7051  -4.6262  -4.5781  -4.4835  -4.4101  -4.2790
    -4.1634  -4.1342  -4.0500  -3.7898  -2.2709  -0.5051  -0.1230   0.7086
     1.1346   1.7220   2.4662   2.9560

          k = 0.3750 0.0722 0.0000 ( 19244 PWs)   bands (ev):

   -48.0676 -46.9654 -46.1624 -46.0176  -5.3530  -5.2540  -5.1813  -5.1207
    -5.0164  -4.8313  -4.7010  -4.6626  -4.5537  -4.4813  -4.4223  -4.2795
    -4.2125  -4.1109  -4.0019  -3.7797  -2.2787  -0.5009  -0.0896   0.6591
     1.1389   1.8279   2.4601   3.0062

          k = 0.3750 0.2165 0.0000 ( 19265 PWs)   bands (ev):

   -48.0676 -46.9654 -46.1624 -46.0176  -5.3820  -5.2103  -5.1682  -5.0613
    -4.9179  -4.8464  -4.7380  -4.6072  -4.5251  -4.4986  -4.4556  -4.3353
    -4.3169  -4.0463  -3.7766  -3.7276  -2.0730  -1.0950   0.0335   0.5668
     1.2378   1.5812   2.4733   3.0553

          k = 0.3750-0.7939 0.0000 ( 19267 PWs)   bands (ev):

   -48.0676 -46.9654 -46.1624 -46.0176  -5.3180  -5.1467  -5.1406  -5.0058
    -4.8801  -4.8261  -4.7234  -4.6216  -4.5468  -4.5073  -4.4692  -4.3909
    -4.2988  -4.0646  -3.9031  -3.1565  -2.0837  -1.1582  -0.0787   0.4850
     0.5998   1.7926   2.3090   2.7225

          k = 0.3750-0.6495 0.0000 ( 19252 PWs)   bands (ev):

   -48.0676 -46.9653 -46.1623 -46.0176  -5.1770  -5.1060  -5.0828  -5.0153
    -4.9598  -4.8638  -4.6370  -4.5985  -4.5403  -4.5085  -4.4310  -4.3713
    -4.2702  -4.1761  -4.0992  -2.3430  -2.3224  -1.3576  -0.1289   0.1409
     0.9920   1.2696   1.8470   2.6121

          k = 0.3750-0.5052 0.0000 ( 19252 PWs)   bands (ev):

   -48.0676 -46.9653 -46.1623 -46.0176  -5.2400  -5.1302  -5.0313  -4.9984
    -4.9364  -4.8407  -4.6542  -4.5671  -4.5374  -4.5059  -4.4212  -4.3859
    -4.2503  -4.1950  -4.1359  -2.3856  -2.2686  -1.3860  -0.1406   0.1461
     1.0200   1.2437   1.7267   2.6489

          k = 0.3750-0.3608 0.0000 ( 19267 PWs)   bands (ev):

   -48.0676 -46.9654 -46.1624 -46.0176  -5.3887  -5.1654  -5.1029  -4.9758
    -4.8872  -4.7346  -4.6611  -4.6457  -4.5410  -4.5243  -4.4589  -4.4102
    -4.2858  -4.1056  -3.9368  -3.1745  -2.0488  -1.2020  -0.1485   0.5422
     0.5820   1.7044   2.1714   2.6301

          k =-0.5000 0.2887 0.0000 ( 19296 PWs)   bands (ev):

   -48.0677 -46.9654 -46.1624 -46.0177  -5.4431  -5.1589  -5.1489  -4.9327
    -4.7782  -4.7325  -4.6956  -4.6012  -4.5844  -4.5331  -4.4733  -4.4052
    -4.3855  -4.0798  -3.8045  -2.8983  -2.5821  -0.9106  -0.5951   0.5872
     0.9652   1.5271   2.2436   2.9622

          k =-0.5000 0.4330 0.0000 ( 19267 PWs)   bands (ev):

   -48.0676 -46.9654 -46.1624 -46.0176  -5.3887  -5.1654  -5.1029  -4.9758
    -4.8872  -4.7346  -4.6611  -4.6457  -4.5410  -4.5243  -4.4589  -4.4102
    -4.2858  -4.1056  -3.9368  -3.1745  -2.0488  -1.2020  -0.1485   0.5422
     0.5820   1.7044   2.1714   2.6301

          k =-0.5000 0.5774 0.0000 ( 19252 PWs)   bands (ev):

   -48.0676 -46.9653 -46.1623 -46.0176  -5.2589  -5.1775  -5.1234  -5.0186
    -4.9867  -4.7137  -4.6867  -4.6007  -4.5630  -4.5343  -4.4458  -4.3634
    -4.2104  -4.1345  -4.0758  -3.2813  -1.6771  -1.1467  -0.4222   0.4758
     1.1083   1.3033   2.0880   2.5492

          k =-0.5000 0.7217 0.0000 ( 19267 PWs)   bands (ev):

   -48.0676 -46.9654 -46.1624 -46.0176  -5.3202  -5.1698  -5.1229  -5.0198
    -4.9333  -4.7329  -4.6757  -4.6238  -4.5653  -4.5098  -4.4749  -4.4072
    -4.3110  -4.0674  -3.9070  -3.1578  -2.0801  -1.1474  -0.1473   0.4546
     0.6717   1.8726   2.3000   2.5481

          k =-0.5000-0.2887 0.0000 ( 19296 PWs)   bands (ev):

   -48.0677 -46.9654 -46.1624 -46.0177  -5.3743  -5.1867  -5.1403  -4.9658
    -4.8479  -4.7841  -4.6921  -4.5998  -4.5641  -4.5306  -4.4744  -4.4209
    -4.3867  -4.0355  -3.7772  -2.8445  -2.6316  -0.8788  -0.5827   0.6169
     0.9854   1.6194   2.5525   2.6575

     the Fermi energy is    -0.0373 ev

!    total energy              =    -312.28412308 Ry
     estimated scf accuracy    <       0.00000037 Ry
     smearing contrib. (-TS)   =      -0.00036955 Ry
     internal energy E=F+TS    =    -312.28375353 Ry

     The total energy is F=E-TS. E is the sum of the following terms:
     one-electron contribution =   -1953.37233768 Ry
     hartree contribution      =     992.91042554 Ry
     xc contribution           =     -81.33535235 Ry
     ewald contribution        =     729.59990191 Ry
     DFT-D3 Dispersion         =      -0.08639094 Ry

     convergence has been achieved in  11 iterations

     negative rho (up, down):  1.525E-05 0.000E+00

     Forces acting on atoms (cartesian axes, Ry/au):

     atom    1 type  1   force =     0.01803833   -0.01041902   -0.00884209
     atom    2 type  1   force =     0.00167870   -0.00096850    0.00714716
     atom    3 type  1   force =    -0.00008213    0.00004919    0.01319242
     atom    4 type  2   force =     0.00186935   -0.00107869    0.00659477
     atom    5 type  2   force =    -0.00109381    0.00063238   -0.01691562
     atom    6 type  2   force =    -0.00037866    0.00021814   -0.00585900
     atom    7 type  2   force =    -0.02003178    0.01156649    0.00468236
     The non-local contrib.  to forces
     atom    1 type  1   force =     0.00590008   -0.00340943    0.05002003
     atom    2 type  1   force =    -0.00071933    0.00041396    0.01043353
     atom    3 type  1   force =     0.00208639   -0.00120573    0.00512068
     atom    4 type  2   force =    -0.00060615    0.00035047    0.01134735
     atom    5 type  2   force =    -0.00094748    0.00054722   -0.01376493
     atom    6 type  2   force =    -0.00053208    0.00030639   -0.06264855
     atom    7 type  2   force =    -0.02202798    0.01271914    0.06093858
     The ionic contribution  to forces
     atom    1 type  1   force =     0.76650047   -0.44260605   42.97938787
     atom    2 type  1   force =    -0.05185470    0.03001153    1.36678755
     atom    3 type  1   force =     0.00000086    0.00000020  -45.71527403
     atom    4 type  2   force =     0.00001199    0.00000318    7.87810701
     atom    5 type  2   force =     0.00321020   -0.00186386   -7.31138379
     atom    6 type  2   force =    -0.00016622    0.00009633  -17.30449558
     atom    7 type  2   force =    -0.71770260    0.41435867   18.10687097
     The local contribution  to forces
     atom    1 type  1   force =    -0.75069373    0.43347863  -43.03281067
     atom    2 type  1   force =     0.05443246   -0.03150113   -1.36817964
     atom    3 type  1   force =    -0.00219722    0.00126439   45.71919362
     atom    4 type  2   force =     0.00248265   -0.00144260   -7.88150930
     atom    5 type  2   force =    -0.00334160    0.00193874    7.30718388
     atom    6 type  2   force =     0.00033556   -0.00019258   17.35958028
     atom    7 type  2   force =     0.71928010   -0.41526891  -18.16143685
     The core correction contribution to forces
     atom    1 type  1   force =    -0.00350191    0.00202198   -0.00164161
     atom    2 type  1   force =    -0.00003791    0.00002159   -0.00248972
     atom    3 type  1   force =     0.00000873   -0.00000521    0.00222937
     atom    4 type  2   force =     0.00000000    0.00000000    0.00000000
     atom    5 type  2   force =     0.00000000    0.00000000    0.00000000
     atom    6 type  2   force =     0.00000000    0.00000000    0.00000000
     atom    7 type  2   force =     0.00000000    0.00000000    0.00000000
     The Hubbard contrib.    to forces
     atom    1 type  1   force =     0.00000000    0.00000000    0.00000000
     atom    2 type  1   force =     0.00000000    0.00000000    0.00000000
     atom    3 type  1   force =     0.00000000    0.00000000    0.00000000
     atom    4 type  2   force =     0.00000000    0.00000000    0.00000000
     atom    5 type  2   force =     0.00000000    0.00000000    0.00000000
     atom    6 type  2   force =     0.00000000    0.00000000    0.00000000
     atom    7 type  2   force =     0.00000000    0.00000000    0.00000000
     The SCF correction term to forces
     atom    1 type  1   force =     0.00002786   -0.00001687   -0.00147464
     atom    2 type  1   force =     0.00004293   -0.00002139    0.00015875
     atom    3 type  1   force =     0.00003252   -0.00001256    0.00037583
     atom    4 type  2   force =    -0.00000572    0.00000214   -0.00031996
     atom    5 type  2   force =    -0.00001005    0.00000709    0.00011972
     atom    6 type  2   force =    -0.00000312    0.00000024    0.00004960
     atom    7 type  2   force =     0.00008886   -0.00005237   -0.00036114

     DFT-D3 dispersion contribution to forces:
     atom    1 type  1   force =    -0.00018103    0.00010461   -0.00230675
     atom    2 type  1   force =    -0.00017135    0.00009883    0.00045300
     atom    3 type  1   force =    -0.00000000   -0.00000000    0.00156326
     atom    4 type  2   force =     0.00000001    0.00000000   -0.00101402
     atom    5 type  2   force =     0.00000852   -0.00000493    0.00094581
     atom    6 type  2   force =     0.00000061   -0.00000035    0.00167156
     atom    7 type  2   force =     0.00034325   -0.00019816   -0.00131287

     Total force =     0.040846     Total SCF correction =     0.001614


     Computing stress (Cartesian axis) and pressure


     negative rho (up, down):  1.525E-05 0.000E+00
          total   stress  (Ry/bohr**3)                   (kbar)     P=       -7.32
  -0.00005980  -0.00000646  -0.00002685           -8.80       -0.95       -3.95
  -0.00000646  -0.00006727   0.00001550           -0.95       -9.90        2.28
  -0.00002685   0.00001550  -0.00002228           -3.95        2.28       -3.28


     BFGS Geometry Optimization
     Energy error            =      0.0E+00 Ry
     Gradient error          =      2.0E-02 Ry/Bohr

     number of scf cycles    =   1
     number of bfgs steps    =   0

     energy             new  =    -312.2841230772 Ry

     new trust radius        =       0.0236004336 bohr
     new conv_thr            =       0.0000010000 Ry


ATOMIC_POSITIONS (angstrom)
Ag            1.1136222960        0.6319213401       14.3423332570
Ag            3.3130546226        1.9117675947       12.7081545675
Ag            5.5202336959        3.1871595357       10.9084386127
Li            5.5212753971        3.1865665295       13.6669409224
Li            1.1034766118        0.6377613415       11.7939636090
Li            3.3119659178        1.9123955382        9.9968995482
Li            4.4056303839        1.2809779696       16.3494900884



     Writing config-only to output data dir ./LiAg_mp-2426_111_bridge_0/LiAg_mp-2426_111_bridge_0.save/
     NEW-OLD atomic charge density approx. for the potential

     negative rho (up, down):  1.551E-05 0.000E+00

     total cpu time spent up to now is       12.1 secs

     per-process dynamical memory:   181.0 Mb

     Self-consistent Calculation

     iteration #  1     ecut=    55.00 Ry     beta= 0.30
     Davidson diagonalization with overlap
     ethr =  1.00E-06,  avg # of iterations =  5.7

     Threshold (ethr) on eigenvalues was too large:
     Diagonalizing with lowered threshold

     Davidson diagonalization with overlap
     ethr =  9.61E-08,  avg # of iterations =  2.2

     negative rho (up, down):  1.539E-05 0.000E+00

     total cpu time spent up to now is       12.9 secs

     total energy              =    -312.28570980 Ry
     estimated scf accuracy    <       0.00004417 Ry

     iteration #  2     ecut=    55.00 Ry     beta= 0.30
     Davidson diagonalization with overlap
     ethr =  9.82E-08,  avg # of iterations =  2.0

     negative rho (up, down):  1.680E-05 0.000E+00

     total cpu time spent up to now is       13.2 secs

     total energy              =    -312.28569170 Ry
     estimated scf accuracy    <       0.00062630 Ry

     iteration #  3     ecut=    55.00 Ry     beta= 0.30
     Davidson diagonalization with overlap
     ethr =  9.82E-08,  avg # of iterations =  1.9

     negative rho (up, down):  1.670E-05 0.000E+00

     total cpu time spent up to now is       13.5 secs

     total energy              =    -312.28572488 Ry
     estimated scf accuracy    <       0.00000503 Ry

     iteration #  4     ecut=    55.00 Ry     beta= 0.30
     Davidson diagonalization with overlap
     ethr =  1.12E-08,  avg # of iterations =  3.1

     negative rho (up, down):  1.527E-05 0.000E+00

     total cpu time spent up to now is       13.8 secs

     total energy              =    -312.28572580 Ry
     estimated scf accuracy    <       0.00000164 Ry

     iteration #  5     ecut=    55.00 Ry     beta= 0.30
     Davidson diagonalization with overlap
     ethr =  3.63E-09,  avg # of iterations =  2.7

     negative rho (up, down):  1.527E-05 0.000E+00

     total cpu time spent up to now is       14.0 secs

     End of self-consistent calculation

          k = 0.0000 0.0000 0.0000 ( 19117 PWs)   bands (ev):

   -48.0696 -46.9699 -46.1578 -46.0128  -5.7219  -5.3769  -5.3520  -5.2301
    -5.2177  -5.1906  -4.8040  -4.7195  -4.7053  -4.5051  -4.4571  -4.1316
    -4.0756  -4.0524  -3.7435  -3.7204  -3.3855  -1.2874   0.0703   1.5659
     2.5465   2.7307   3.7281   4.1137

          k = 0.0000 0.1443 0.0000 ( 19191 PWs)   bands (ev):

   -48.0697 -46.9700 -46.1579 -46.0129  -5.6207  -5.3527  -5.3221  -5.2286
    -5.1821  -5.1364  -4.7775  -4.7116  -4.6696  -4.5095  -4.4573  -4.1599
    -4.1037  -4.0491  -3.8586  -3.7318  -3.2026  -1.1358   0.2119   1.7021
     2.5659   2.7037   2.9083   3.0973

          k = 0.0000 0.2887 0.0000 ( 19227 PWs)   bands (ev):

   -48.0697 -46.9700 -46.1579 -46.0129  -5.4354  -5.2820  -5.2353  -5.2009
    -5.0623  -5.0008  -4.7472  -4.6512  -4.5813  -4.5090  -4.4048  -4.2271
    -4.1899  -4.0849  -4.0190  -3.7530  -2.7292  -0.7064   0.3623   0.9150
     1.9609   2.1172   2.4033   3.1674

          k = 0.0000 0.4330 0.0000 ( 19265 PWs)   bands (ev):

   -48.0697 -46.9700 -46.1578 -46.0129  -5.3781  -5.2104  -5.1624  -5.0597
    -4.9144  -4.8427  -4.7346  -4.6021  -4.5217  -4.4925  -4.4527  -4.3302
    -4.3115  -4.0395  -3.7700  -3.7242  -2.0669  -1.0926   0.0325   0.5694
     1.2403   1.5821   2.4766   3.0580

          k = 0.0000-0.5774 0.0000 ( 19296 PWs)   bands (ev):

   -48.0698 -46.9700 -46.1578 -46.0130  -5.3705  -5.1861  -5.1341  -4.9630
    -4.8416  -4.7816  -4.6887  -4.5977  -4.5552  -4.5265  -4.4719  -4.4178
    -4.3826  -4.0282  -3.7709  -2.8444  -2.6247  -0.8736  -0.5821   0.6136
     0.9875   1.6242   2.5554   2.6590

          k = 0.1250-0.0722 0.0000 ( 19191 PWs)   bands (ev):

   -48.0697 -46.9700 -46.1579 -46.0129  -5.6316  -5.3525  -5.3187  -5.2047
    -5.1848  -5.1472  -4.7626  -4.7008  -4.6874  -4.5009  -4.4684  -4.1444
    -4.0940  -4.0803  -3.8479  -3.7519  -3.1947  -1.1397   0.2189   1.6856
     2.5325   2.7417   2.9094   3.0792

          k = 0.1250 0.0722 0.0000 ( 19191 PWs)   bands (ev):

   -48.0697 -46.9700 -46.1579 -46.0129  -5.6207  -5.3527  -5.3221  -5.2286
    -5.1821  -5.1364  -4.7775  -4.7116  -4.6696  -4.5095  -4.4573  -4.1599
    -4.1037  -4.0491  -3.8586  -3.7318  -3.2025  -1.1358   0.2119   1.7021
     2.5659   2.7037   2.9083   3.0973

          k = 0.1250 0.2165 0.0000 ( 19214 PWs)   bands (ev):

   -48.0697 -46.9700 -46.1579 -46.0129  -5.4557  -5.3018  -5.2683  -5.1962
    -5.1621  -5.0242  -4.7375  -4.6823  -4.6137  -4.5365  -4.4092  -4.2373
    -4.1149  -4.0559  -4.0022  -3.7547  -2.8838  -0.8376   0.4517   1.4343
     1.7211   2.0668   2.9669   3.1521

          k = 0.1250 0.3608 0.0000 ( 19244 PWs)   bands (ev):

   -48.0697 -46.9699 -46.1578 -46.0129  -5.3337  -5.2072  -5.1833  -5.1282
    -5.0286  -4.9016  -4.7024  -4.6005  -4.5730  -4.5537  -4.4120  -4.2550
    -4.1619  -4.0881  -4.0023  -3.7606  -2.2896  -0.4550  -0.0959   0.6856
     1.1185   1.8201   2.5162   2.9864

          k = 0.1250-0.6495 0.0000 ( 19267 PWs)   bands (ev):

   -48.0697 -46.9699 -46.1578 -46.0129  -5.3142  -5.1441  -5.1363  -5.0035
    -4.8755  -4.8210  -4.7205  -4.6188  -4.5416  -4.5035  -4.4643  -4.3881
    -4.2933  -4.0577  -3.8976  -3.1530  -2.0787  -1.1557  -0.0775   0.4864
     0.5987   1.7964   2.3097   2.7247

          k = 0.1250-0.5052 0.0000 ( 19267 PWs)   bands (ev):

   -48.0697 -46.9699 -46.1578 -46.0129  -5.3165  -5.1690  -5.1169  -5.0178
    -4.9305  -4.7293  -4.6714  -4.6210  -4.5573  -4.5066  -4.4691  -4.4042
    -4.3061  -4.0607  -3.9008  -3.1554  -2.0747  -1.1452  -0.1447   0.4541
     0.6727   1.8754   2.3005   2.5504

          k = 0.1250-0.3608 0.0000 ( 19244 PWs)   bands (ev):

   -48.0697 -46.9699 -46.1578 -46.0129  -5.3504  -5.2520  -5.1793  -5.1178
    -5.0168  -4.8264  -4.6978  -4.6565  -4.5505  -4.4764  -4.4172  -4.2737
    -4.2042  -4.1072  -3.9959  -3.7728  -2.2744  -0.4961  -0.0898   0.6620
     1.1386   1.8303   2.4646   3.0041

          k = 0.1250-0.2165 0.0000 ( 19214 PWs)   bands (ev):

   -48.0697 -46.9700 -46.1579 -46.0129  -5.4923  -5.3198  -5.2452  -5.1748
    -5.1425  -5.0172  -4.7273  -4.6866  -4.6129  -4.4960  -4.4406  -4.2082
    -4.1510  -4.0649  -4.0076  -3.7732  -2.8714  -0.8507   0.4696   1.4360
     1.6378   2.0727   2.9942   3.1328

          k = 0.2500-0.1443 0.0000 ( 19227 PWs)   bands (ev):

   -48.0697 -46.9700 -46.1579 -46.0129  -5.4961  -5.2496  -5.2375  -5.1667
    -5.0420  -5.0068  -4.7278  -4.6186  -4.6179  -4.4833  -4.4164  -4.2241
    -4.1631  -4.1230  -4.0436  -3.7731  -2.7177  -0.7222   0.3916   0.8682
     1.9764   2.0433   2.3914   3.1634

          k = 0.2500 0.0000 0.0000 ( 19214 PWs)   bands (ev):

   -48.0697 -46.9700 -46.1579 -46.0129  -5.4923  -5.3198  -5.2453  -5.1748
    -5.1425  -5.0172  -4.7273  -4.6866  -4.6129  -4.4960  -4.4406  -4.2082
    -4.1510  -4.0649  -4.0076  -3.7732  -2.8714  -0.8507   0.4696   1.4360
     1.6378   2.0727   2.9942   3.1328

          k = 0.2500 0.1443 0.0000 ( 19227 PWs)   bands (ev):

   -48.0697 -46.9700 -46.1579 -46.0129  -5.4354  -5.2820  -5.2353  -5.2009
    -5.0623  -5.0008  -4.7472  -4.6512  -4.5813  -4.5090  -4.4048  -4.2271
    -4.1899  -4.0849  -4.0190  -3.7530  -2.7292  -0.7064   0.3623   0.9150
     1.9609   2.1172   2.4033   3.1674

          k = 0.2500 0.2887 0.0000 ( 19244 PWs)   bands (ev):

   -48.0697 -46.9699 -46.1578 -46.0129  -5.3336  -5.2073  -5.1833  -5.1282
    -5.0286  -4.9016  -4.7024  -4.6005  -4.5730  -4.5537  -4.4120  -4.2550
    -4.1619  -4.0881  -4.0023  -3.7606  -2.2896  -0.4550  -0.0959   0.6856
     1.1185   1.8201   2.5162   2.9864

          k = 0.2500-0.7217 0.0000 ( 19252 PWs)   bands (ev):

   -48.0697 -46.9699 -46.1577 -46.0129  -5.1914  -5.1596  -5.1236  -5.0317
    -4.9998  -4.8167  -4.6891  -4.6233  -4.5461  -4.5281  -4.4668  -4.3150
    -4.1913  -4.1022  -4.0556  -3.2686  -1.7240  -1.0822  -0.3844   0.5119
     1.0901   1.2209   2.2170   2.5941

          k = 0.2500-0.5774 0.0000 ( 19252 PWs)   bands (ev):

   -48.0697 -46.9699 -46.1577 -46.0129  -5.1735  -5.1025  -5.0778  -5.0147
    -4.9553  -4.8617  -4.6328  -4.5921  -4.5343  -4.5053  -4.4261  -4.3682
    -4.2657  -4.1700  -4.0922  -2.3367  -2.3218  -1.3561  -0.1277   0.1434
     0.9920   1.2693   1.8511   2.6143

          k = 0.2500-0.4330 0.0000 ( 19252 PWs)   bands (ev):

   -48.0697 -46.9699 -46.1577 -46.0129  -5.2577  -5.1746  -5.1207  -5.0162
    -4.9846  -4.7092  -4.6821  -4.5964  -4.5546  -4.5310  -4.4433  -4.3564
    -4.2045  -4.1279  -4.0691  -3.2789  -1.6747  -1.1412  -0.4221   0.4763
     1.1087   1.3064   2.0916   2.5524

          k = 0.2500-0.2887 0.0000 ( 19244 PWs)   bands (ev):

   -48.0697 -46.9699 -46.1578 -46.0129  -5.4096  -5.2257  -5.1514  -5.1044
    -5.0093  -4.8315  -4.6988  -4.6217  -4.5744  -4.4786  -4.4065  -4.2719
    -4.1567  -4.1284  -4.0448  -3.7814  -2.2679  -0.5020  -0.1208   0.7113
     1.1334   1.7263   2.4696   2.9579

          k = 0.3750-0.2165 0.0000 ( 19265 PWs)   bands (ev):

   -48.0697 -46.9700 -46.1578 -46.0129  -5.4516  -5.1865  -5.1728  -5.0113
    -4.8709  -4.8337  -4.7124  -4.5850  -4.5453  -4.4649  -4.4626  -4.3240
    -4.2935  -4.0797  -3.7907  -3.7613  -2.0372  -1.1337  -0.0185   0.6331
     1.2343   1.4459   2.3406   3.1657

          k = 0.3750-0.0722 0.0000 ( 19244 PWs)   bands (ev):

   -48.0697 -46.9699 -46.1578 -46.0129  -5.4096  -5.2257  -5.1514  -5.1044
    -5.0093  -4.8315  -4.6988  -4.6217  -4.5744  -4.4786  -4.4065  -4.2719
    -4.1567  -4.1284  -4.0448  -3.7814  -2.2679  -0.5020  -0.1208   0.7113
     1.1334   1.7263   2.4696   2.9579

          k = 0.3750 0.0722 0.0000 ( 19244 PWs)   bands (ev):

   -48.0697 -46.9699 -46.1578 -46.0129  -5.3504  -5.2520  -5.1793  -5.1178
    -5.0168  -4.8264  -4.6978  -4.6565  -4.5505  -4.4764  -4.4172  -4.2737
    -4.2042  -4.1072  -3.9959  -3.7729  -2.2744  -0.4961  -0.0898   0.6620
     1.1386   1.8303   2.4646   3.0041

          k = 0.3750 0.2165 0.0000 ( 19265 PWs)   bands (ev):

   -48.0697 -46.9700 -46.1578 -46.0129  -5.3781  -5.2104  -5.1623  -5.0598
    -4.9144  -4.8428  -4.7346  -4.6021  -4.5217  -4.4924  -4.4527  -4.3302
    -4.3115  -4.0395  -3.7700  -3.7242  -2.0669  -1.0926   0.0325   0.5694
     1.2403   1.5821   2.4766   3.0580

          k = 0.3750-0.7939 0.0000 ( 19267 PWs)   bands (ev):

   -48.0697 -46.9699 -46.1578 -46.0129  -5.3141  -5.1440  -5.1363  -5.0035
    -4.8755  -4.8210  -4.7205  -4.6188  -4.5416  -4.5035  -4.4643  -4.3881
    -4.2933  -4.0577  -3.8976  -3.1530  -2.0787  -1.1557  -0.0775   0.4864
     0.5987   1.7964   2.3096   2.7247

          k = 0.3750-0.6495 0.0000 ( 19252 PWs)   bands (ev):

   -48.0697 -46.9699 -46.1577 -46.0129  -5.1735  -5.1025  -5.0778  -5.0147
    -4.9553  -4.8617  -4.6328  -4.5921  -4.5343  -4.5053  -4.4261  -4.3682
    -4.2656  -4.1700  -4.0922  -2.3367  -2.3218  -1.3561  -0.1277   0.1434
     0.9920   1.2693   1.8511   2.6143

          k = 0.3750-0.5052 0.0000 ( 19252 PWs)   bands (ev):

   -48.0697 -46.9699 -46.1577 -46.0129  -5.2385  -5.1289  -5.0311  -4.9925
    -4.9317  -4.8384  -4.6480  -4.5605  -4.5336  -4.4997  -4.4196  -4.3792
    -4.2466  -4.1892  -4.1263  -2.3806  -2.2715  -1.3806  -0.1420   0.1490
     1.0227   1.2468   1.7288   2.6511

          k = 0.3750-0.3608 0.0000 ( 19267 PWs)   bands (ev):

   -48.0697 -46.9699 -46.1578 -46.0129  -5.3880  -5.1660  -5.1049  -4.9690
    -4.8819  -4.7303  -4.6536  -4.6401  -4.5349  -4.5192  -4.4560  -4.4068
    -4.2815  -4.0974  -3.9274  -3.1727  -2.0496  -1.1961  -0.1477   0.5454
     0.5832   1.7089   2.1741   2.6325

          k =-0.5000 0.2887 0.0000 ( 19296 PWs)   bands (ev):

   -48.0698 -46.9700 -46.1578 -46.0130  -5.4426  -5.1603  -5.1514  -4.9244
    -4.7729  -4.7255  -4.6922  -4.5918  -4.5751  -4.5293  -4.4724  -4.4035
    -4.3825  -4.0706  -3.7940  -2.8958  -2.5838  -0.9054  -0.5946   0.5897
     0.9682   1.5309   2.2488   2.9588

          k =-0.5000 0.4330 0.0000 ( 19267 PWs)   bands (ev):

   -48.0697 -46.9699 -46.1578 -46.0129  -5.3880  -5.1660  -5.1049  -4.9690
    -4.8819  -4.7303  -4.6536  -4.6401  -4.5349  -4.5191  -4.4560  -4.4068
    -4.2815  -4.0974  -3.9274  -3.1727  -2.0496  -1.1961  -0.1477   0.5454
     0.5832   1.7089   2.1741   2.6325

          k =-0.5000 0.5774 0.0000 ( 19252 PWs)   bands (ev):

   -48.0697 -46.9699 -46.1577 -46.0129  -5.2577  -5.1746  -5.1206  -5.0162
    -4.9846  -4.7092  -4.6821  -4.5964  -4.5546  -4.5310  -4.4433  -4.3564
    -4.2045  -4.1279  -4.0691  -3.2789  -1.6747  -1.1413  -0.4221   0.4763
     1.1087   1.3064   2.0916   2.5524

          k =-0.5000 0.7217 0.0000 ( 19267 PWs)   bands (ev):

   -48.0697 -46.9699 -46.1578 -46.0129  -5.3165  -5.1690  -5.1169  -5.0178
    -4.9305  -4.7293  -4.6714  -4.6210  -4.5573  -4.5066  -4.4691  -4.4042
    -4.3061  -4.0607  -3.9008  -3.1554  -2.0747  -1.1452  -0.1447   0.4541
     0.6727   1.8754   2.3005   2.5504

          k =-0.5000-0.2887 0.0000 ( 19296 PWs)   bands (ev):

   -48.0698 -46.9700 -46.1578 -46.0130  -5.3705  -5.1861  -5.1341  -4.9631
    -4.8416  -4.7816  -4.6887  -4.5977  -4.5552  -4.5265  -4.4719  -4.4177
    -4.3826  -4.0282  -3.7709  -2.8444  -2.6247  -0.8736  -0.5821   0.6136
     0.9875   1.6242   2.5554   2.6590

     the Fermi energy is    -0.0363 ev

!    total energy              =    -312.28572602 Ry
     estimated scf accuracy    <       0.00000020 Ry
     smearing contrib. (-TS)   =      -0.00035752 Ry
     internal energy E=F+TS    =    -312.28536850 Ry

     The total energy is F=E-TS. E is the sum of the following terms:
     one-electron contribution =   -1954.56468870 Ry
     hartree contribution      =     993.52627699 Ry
     xc contribution           =     -81.33413067 Ry
     ewald contribution        =     730.17355749 Ry
     DFT-D3 Dispersion         =      -0.08638361 Ry

     convergence has been achieved in   5 iterations

     negative rho (up, down):  1.527E-05 0.000E+00

     Forces acting on atoms (cartesian axes, Ry/au):

     atom    1 type  1   force =     0.01658451   -0.00957794   -0.00654507
     atom    2 type  1   force =     0.00163867   -0.00094402    0.00670801
     atom    3 type  1   force =    -0.00013791    0.00008090    0.01227026
     atom    4 type  2   force =     0.00245330   -0.00141610    0.00663196
     atom    5 type  2   force =    -0.00101050    0.00058251   -0.01614792
     atom    6 type  2   force =    -0.00039960    0.00023073   -0.00553586
     atom    7 type  2   force =    -0.01912847    0.01104392    0.00261863
     The non-local contrib.  to forces
     atom    1 type  1   force =     0.00680151   -0.00392537    0.04837266
     atom    2 type  1   force =    -0.00030888    0.00018068    0.01050236
     atom    3 type  1   force =     0.00199722   -0.00115211    0.00661093
     atom    4 type  2   force =    -0.00021420    0.00012360    0.01155165
     atom    5 type  2   force =    -0.00093732    0.00054065   -0.01366673
     atom    6 type  2   force =    -0.00054292    0.00031324   -0.06268855
     atom    7 type  2   force =    -0.02164107    0.01249544    0.06016342
     The ionic contribution  to forces
     atom    1 type  1   force =     0.70991233   -0.40992586   42.97104489
     atom    2 type  1   force =    -0.03122674    0.01809698    1.41437619
     atom    3 type  1   force =     0.00264580   -0.00153150  -45.65930824
     atom    4 type  2   force =     0.01761358   -0.01016483    7.91109143
     atom    5 type  2   force =     0.00101752   -0.00059565   -7.38671329
     atom    6 type  2   force =    -0.00029636    0.00017331  -17.32105351
     atom    7 type  2   force =    -0.69966614    0.40394755   18.07056253
     The local contribution  to forces
     atom    1 type  1   force =    -0.69714512    0.40255277  -43.02233613
     atom    2 type  1   force =     0.03363919   -0.01948729   -1.41702934
     atom    3 type  1   force =    -0.00474676    0.00274316   45.66131649
     atom    4 type  2   force =    -0.01494204    0.00862187   -7.91517306
     atom    5 type  2   force =    -0.00109098    0.00063820    7.38335320
     atom    6 type  2   force =     0.00048737   -0.00028324   17.37670512
     atom    7 type  2   force =     0.70195185   -0.40526739  -18.12679060
     The core correction contribution to forces
     atom    1 type  1   force =    -0.00328990    0.00189958   -0.00191732
     atom    2 type  1   force =    -0.00005614    0.00003234   -0.00240683
     atom    3 type  1   force =     0.00001357   -0.00000788    0.00227495
     atom    4 type  2   force =     0.00000000    0.00000000    0.00000000
     atom    5 type  2   force =     0.00000000    0.00000000    0.00000000
     atom    6 type  2   force =     0.00000000    0.00000000    0.00000000
     atom    7 type  2   force =     0.00000000    0.00000000    0.00000000
     The Hubbard contrib.    to forces
     atom    1 type  1   force =     0.00000000    0.00000000    0.00000000
     atom    2 type  1   force =     0.00000000    0.00000000    0.00000000
     atom    3 type  1   force =     0.00000000    0.00000000    0.00000000
     atom    4 type  2   force =     0.00000000    0.00000000    0.00000000
     atom    5 type  2   force =     0.00000000    0.00000000    0.00000000
     atom    6 type  2   force =     0.00000000    0.00000000    0.00000000
     atom    7 type  2   force =     0.00000000    0.00000000    0.00000000
     The SCF correction term to forces
     atom    1 type  1   force =     0.00049868   -0.00029047    0.00074777
     atom    2 type  1   force =    -0.00016407    0.00009219    0.00087909
     atom    3 type  1   force =    -0.00000450    0.00000436   -0.00014912
     atom    4 type  2   force =     0.00003698   -0.00002035    0.00024398
     atom    5 type  2   force =     0.00003609   -0.00002127    0.00002838
     atom    6 type  2   force =    -0.00000931    0.00000536   -0.00009076
     atom    7 type  2   force =    -0.00009580    0.00005470    0.00002864

     DFT-D3 dispersion contribution to forces:
     atom    1 type  1   force =    -0.00015392    0.00008895   -0.00238121
     atom    2 type  1   force =    -0.00020562    0.00011862    0.00046228
     atom    3 type  1   force =    -0.00000418    0.00000241    0.00160100
     atom    4 type  2   force =    -0.00000195    0.00000114   -0.00100630
     atom    5 type  2   force =     0.00000324   -0.00000188    0.00092626
     atom    6 type  2   force =     0.00000069   -0.00000040    0.00166759
     atom    7 type  2   force =     0.00036175   -0.00020884   -0.00126961

     Total force =     0.038059     Total SCF correction =     0.001345


     Computing stress (Cartesian axis) and pressure


     negative rho (up, down):  1.527E-05 0.000E+00
          total   stress  (Ry/bohr**3)                   (kbar)     P=       -7.17
  -0.00005772  -0.00000664  -0.00002609           -8.49       -0.98       -3.84
  -0.00000664  -0.00006539   0.00001506           -0.98       -9.62        2.22
  -0.00002609   0.00001506  -0.00002311           -3.84        2.22       -3.40

     Energy error            =      1.6E-03 Ry
     Gradient error          =      1.9E-02 Ry/Bohr

     number of scf cycles    =   2
     number of bfgs steps    =   1

     energy             old  =    -312.2841230772 Ry
     energy             new  =    -312.2857260177 Ry

     CASE: energy            _new < energy            _old


     WARNING: bfgs curvature condition failed, Theta= 0.861
     new trust radius        =       0.0259604770 bohr
     new conv_thr            =       0.0000001603 Ry


ATOMIC_POSITIONS (angstrom)
Ag            1.1239553762        0.6259534737       14.3379333388
Ag            3.3140562464        1.9111903041       12.7123062169
Ag            5.5201604485        3.1872026936       10.9160549989
Li            5.5226546577        3.1857704541       13.6709574343
Li            1.1028479969        0.6381240538       11.7840235931
Li            3.3117274033        1.9125331664        9.9934806891
Li            4.3938567960        1.2877757036       16.3514643341



     Writing config-only to output data dir ./LiAg_mp-2426_111_bridge_0/LiAg_mp-2426_111_bridge_0.save/
     NEW-OLD atomic charge density approx. for the potential

     negative rho (up, down):  1.554E-05 0.000E+00

     total cpu time spent up to now is       15.1 secs

     per-process dynamical memory:   211.8 Mb

     Self-consistent Calculation

     iteration #  1     ecut=    55.00 Ry     beta= 0.30
     Davidson diagonalization with overlap
     ethr =  1.00E-06,  avg # of iterations =  6.0

     Threshold (ethr) on eigenvalues was too large:
     Diagonalizing with lowered threshold

     Davidson diagonalization with overlap
     ethr =  3.73E-08,  avg # of iterations =  2.3

     negative rho (up, down):  1.535E-05 0.000E+00

     total cpu time spent up to now is       15.9 secs

     total energy              =    -312.28734907 Ry
     estimated scf accuracy    <       0.00001721 Ry

     iteration #  2     ecut=    55.00 Ry     beta= 0.30
     Davidson diagonalization with overlap
     ethr =  3.82E-08,  avg # of iterations =  2.0

     negative rho (up, down):  1.691E-05 0.000E+00

     total cpu time spent up to now is       16.2 secs

     total energy              =    -312.28734433 Ry
     estimated scf accuracy    <       0.00013651 Ry

     iteration #  3     ecut=    55.00 Ry     beta= 0.30
     Davidson diagonalization with overlap
     ethr =  3.82E-08,  avg # of iterations =  1.5

     negative rho (up, down):  1.526E-05 0.000E+00

     total cpu time spent up to now is       16.4 secs

     total energy              =    -312.28735267 Ry
     estimated scf accuracy    <       0.00000468 Ry

     iteration #  4     ecut=    55.00 Ry     beta= 0.30
     Davidson diagonalization with overlap
     ethr =  1.04E-08,  avg # of iterations =  2.0

     negative rho (up, down):  1.522E-05 0.000E+00

     total cpu time spent up to now is       16.6 secs

     total energy              =    -312.28735311 Ry
     estimated scf accuracy    <       0.00000128 Ry

     iteration #  5     ecut=    55.00 Ry     beta= 0.30
     Davidson diagonalization with overlap
     ethr =  2.84E-09,  avg # of iterations =  2.4

     negative rho (up, down):  1.543E-05 0.000E+00

     total cpu time spent up to now is       16.9 secs

     total energy              =    -312.28735335 Ry
     estimated scf accuracy    <       0.00000017 Ry

     iteration #  6     ecut=    55.00 Ry     beta= 0.30
     Davidson diagonalization with overlap
     ethr =  3.76E-10,  avg # of iterations =  4.7

     negative rho (up, down):  1.521E-05 0.000E+00

     total cpu time spent up to now is       17.2 secs

     End of self-consistent calculation

          k = 0.0000 0.0000 0.0000 ( 19117 PWs)   bands (ev):

   -48.0701 -46.9735 -46.1512 -46.0065  -5.7199  -5.3706  -5.3467  -5.2280
    -5.2117  -5.1852  -4.7965  -4.7159  -4.7011  -4.4948  -4.4492  -4.1171
    -4.0668  -4.0403  -3.7294  -3.7114  -3.3770  -1.2847   0.0749   1.5698
     2.5463   2.7289   3.7309   4.1108

          k = 0.0000 0.1443 0.0000 ( 19191 PWs)   bands (ev):

   -48.0702 -46.9736 -46.1513 -46.0066  -5.6181  -5.3464  -5.3164  -5.2248
    -5.1778  -5.1313  -4.7709  -4.7064  -4.6649  -4.4998  -4.4497  -4.1461
    -4.0941  -4.0381  -3.8455  -3.7222  -3.1942  -1.1332   0.2167   1.7058
     2.5725   2.7041   2.9072   3.1046

          k = 0.0000 0.2887 0.0000 ( 19227 PWs)   bands (ev):

   -48.0702 -46.9735 -46.1513 -46.0066  -5.4295  -5.2783  -5.2283  -5.1961
    -5.0581  -4.9952  -4.7418  -4.6428  -4.5756  -4.5012  -4.3986  -4.2154
    -4.1807  -4.0735  -4.0071  -3.7435  -2.7211  -0.7036   0.3696   0.9177
     1.9674   2.1213   2.4063   3.1672

          k = 0.0000 0.4330 0.0000 ( 19265 PWs)   bands (ev):

   -48.0702 -46.9736 -46.1512 -46.0066  -5.3705  -5.2076  -5.1530  -5.0553
    -4.9079  -4.8359  -4.7284  -4.5939  -4.5154  -4.4832  -4.4467  -4.3212
    -4.3027  -4.0291  -3.7601  -3.7177  -2.0580  -1.0874   0.0334   0.5743
     1.2460   1.5846   2.4819   3.0620

          k = 0.0000-0.5774 0.0000 ( 19296 PWs)   bands (ev):

   -48.0702 -46.9736 -46.1513 -46.0067  -5.3631  -5.1827  -5.1244  -4.9575
    -4.8322  -4.7762  -4.6823  -4.5921  -4.5438  -4.5182  -4.4661  -4.4115
    -4.3752  -4.0172  -3.7612  -2.8417  -2.6144  -0.8656  -0.5797   0.6123
     0.9925   1.6311   2.5593   2.6634

          k = 0.1250-0.0722 0.0000 ( 19191 PWs)   bands (ev):

   -48.0702 -46.9736 -46.1513 -46.0066  -5.6294  -5.3464  -5.3141  -5.2009
    -5.1819  -5.1396  -4.7542  -4.6967  -4.6834  -4.4910  -4.4606  -4.1324
    -4.0833  -4.0684  -3.8381  -3.7379  -3.1871  -1.1370   0.2236   1.6895
     2.5385   2.7412   2.9078   3.0882

          k = 0.1250 0.0722 0.0000 ( 19191 PWs)   bands (ev):

   -48.0702 -46.9736 -46.1513 -46.0066  -5.6181  -5.3464  -5.3164  -5.2248
    -5.1778  -5.1313  -4.7709  -4.7064  -4.6649  -4.4998  -4.4497  -4.1461
    -4.0941  -4.0381  -3.8455  -3.7222  -3.1942  -1.1332   0.2167   1.7058
     2.5725   2.7041   2.9072   3.1046

          k = 0.1250 0.2165 0.0000 ( 19214 PWs)   bands (ev):

   -48.0702 -46.9735 -46.1513 -46.0066  -5.4508  -5.2959  -5.2620  -5.1926
    -5.1568  -5.0196  -4.7317  -4.6767  -4.6066  -4.5281  -4.4032  -4.2255
    -4.1039  -4.0460  -3.9884  -3.7466  -2.8752  -0.8351   0.4577   1.4374
     1.7287   2.0706   2.9672   3.1502

          k = 0.1250 0.3608 0.0000 ( 19244 PWs)   bands (ev):

   -48.0702 -46.9735 -46.1512 -46.0066  -5.3257  -5.2004  -5.1783  -5.1233
    -5.0246  -4.8938  -4.6967  -4.5943  -4.5643  -4.5461  -4.4063  -4.2464
    -4.1505  -4.0786  -3.9931  -3.7519  -2.2807  -0.4492  -0.0950   0.6928
     1.1198   1.8245   2.5210   2.9864

          k = 0.1250-0.6495 0.0000 ( 19267 PWs)   bands (ev):

   -48.0702 -46.9735 -46.1512 -46.0066  -5.3067  -5.1398  -5.1273  -4.9983
    -4.8678  -4.8128  -4.7146  -4.6130  -4.5330  -4.4966  -4.4557  -4.3822
    -4.2841  -4.0471  -3.8887  -3.1464  -2.0704  -1.1507  -0.0740   0.4899
     0.6001   1.8020   2.3127   2.7285

          k = 0.1250-0.5052 0.0000 ( 19267 PWs)   bands (ev):

   -48.0702 -46.9735 -46.1512 -46.0066  -5.3093  -5.1655  -5.1073  -5.0128
    -4.9242  -4.7230  -4.6641  -4.6151  -4.5463  -4.4999  -4.4597  -4.3981
    -4.2974  -4.0503  -3.8912  -3.1500  -2.0661  -1.1407  -0.1397   0.4557
     0.6761   1.8799   2.3031   2.5552

          k = 0.1250-0.3608 0.0000 ( 19244 PWs)   bands (ev):

   -48.0702 -46.9735 -46.1512 -46.0066  -5.3444  -5.2469  -5.1741  -5.1113
    -5.0141  -4.8184  -4.6920  -4.6474  -4.5444  -4.4690  -4.4081  -4.2650
    -4.1917  -4.1001  -3.9864  -3.7625  -2.2674  -0.4888  -0.0876   0.6679
     1.1400   1.8346   2.4711   3.0028

          k = 0.1250-0.2165 0.0000 ( 19214 PWs)   bands (ev):

   -48.0702 -46.9735 -46.1513 -46.0066  -5.4891  -5.3137  -5.2408  -5.1692
    -5.1402  -5.0101  -4.7204  -4.6790  -4.6085  -4.4881  -4.4325  -4.1995
    -4.1378  -4.0545  -3.9962  -3.7608  -2.8642  -0.8479   0.4755   1.4429
     1.6414   2.0771   2.9944   3.1306

          k = 0.2500-0.1443 0.0000 ( 19227 PWs)   bands (ev):

   -48.0702 -46.9735 -46.1513 -46.0066  -5.4929  -5.2467  -5.2343  -5.1598
    -5.0371  -4.9988  -4.7194  -4.6131  -4.6108  -4.4766  -4.4085  -4.2165
    -4.1522  -4.1106  -4.0326  -3.7589  -2.7114  -0.7192   0.3995   0.8698
     1.9839   2.0495   2.3916   3.1622

          k = 0.2500 0.0000 0.0000 ( 19214 PWs)   bands (ev):

   -48.0702 -46.9735 -46.1513 -46.0066  -5.4891  -5.3137  -5.2408  -5.1692
    -5.1402  -5.0101  -4.7204  -4.6790  -4.6085  -4.4881  -4.4325  -4.1995
    -4.1378  -4.0545  -3.9962  -3.7608  -2.8642  -0.8479   0.4755   1.4429
     1.6414   2.0771   2.9944   3.1306

          k = 0.2500 0.1443 0.0000 ( 19227 PWs)   bands (ev):

   -48.0702 -46.9735 -46.1513 -46.0066  -5.4295  -5.2783  -5.2283  -5.1961
    -5.0581  -4.9952  -4.7418  -4.6428  -4.5756  -4.5012  -4.3986  -4.2154
    -4.1807  -4.0735  -4.0071  -3.7435  -2.7211  -0.7036   0.3696   0.9177
     1.9674   2.1213   2.4063   3.1672

          k = 0.2500 0.2887 0.0000 ( 19244 PWs)   bands (ev):

   -48.0702 -46.9735 -46.1512 -46.0066  -5.3257  -5.2004  -5.1783  -5.1233
    -5.0246  -4.8938  -4.6967  -4.5943  -4.5643  -4.5461  -4.4063  -4.2464
    -4.1505  -4.0786  -3.9931  -3.7519  -2.2807  -0.4492  -0.0950   0.6928
     1.1198   1.8245   2.5210   2.9864

          k = 0.2500-0.7217 0.0000 ( 19252 PWs)   bands (ev):

   -48.0701 -46.9735 -46.1512 -46.0066  -5.1819  -5.1536  -5.1163  -5.0273
    -4.9948  -4.8065  -4.6839  -4.6183  -4.5365  -4.5198  -4.4620  -4.3064
    -4.1809  -4.0916  -4.0487  -3.2613  -1.7132  -1.0812  -0.3790   0.5124
     1.0925   1.2253   2.2209   2.6022

          k = 0.2500-0.5774 0.0000 ( 19252 PWs)   bands (ev):

   -48.0701 -46.9735 -46.1511 -46.0066  -5.1668  -5.0967  -5.0689  -5.0106
    -4.9474  -4.8565  -4.6259  -4.5831  -4.5251  -4.4991  -4.4181  -4.3611
    -4.2574  -4.1601  -4.0818  -2.3282  -2.3173  -1.3518  -0.1244   0.1480
     0.9942   1.2712   1.8575   2.6189

          k = 0.2500-0.4330 0.0000 ( 19252 PWs)   bands (ev):

   -48.0701 -46.9735 -46.1512 -46.0066  -5.2536  -5.1684  -5.1146  -5.0104
    -4.9791  -4.7018  -4.6747  -4.5900  -4.5429  -4.5235  -4.4376  -4.3462
    -4.1950  -4.1174  -4.0588  -3.2735  -1.6698  -1.1325  -0.4194   0.4790
     1.1111   1.3118   2.0970   2.5581

          k = 0.2500-0.2887 0.0000 ( 19244 PWs)   bands (ev):

   -48.0702 -46.9735 -46.1512 -46.0066  -5.4059  -5.2220  -5.1476  -5.0984
    -5.0031  -4.8232  -4.6897  -4.6142  -4.5678  -4.4709  -4.3994  -4.2617
    -4.1466  -4.1187  -4.0359  -3.7694  -2.2624  -0.4962  -0.1161   0.7169
     1.1337   1.7331   2.4744   2.9609

          k = 0.3750-0.2165 0.0000 ( 19265 PWs)   bands (ev):

   -48.0702 -46.9736 -46.1512 -46.0066  -5.4479  -5.1846  -5.1719  -5.0015
    -4.8618  -4.8268  -4.7026  -4.5774  -4.5353  -4.4590  -4.4553  -4.3161
    -4.2850  -4.0670  -3.7764  -3.7562  -2.0338  -1.1264  -0.0158   0.6365
     1.2408   1.4522   2.3458   3.1656

          k = 0.3750-0.0722 0.0000 ( 19244 PWs)   bands (ev):

   -48.0702 -46.9735 -46.1512 -46.0066  -5.4059  -5.2220  -5.1476  -5.0984
    -5.0031  -4.8232  -4.6897  -4.6142  -4.5678  -4.4709  -4.3994  -4.2617
    -4.1466  -4.1187  -4.0359  -3.7694  -2.2624  -0.4962  -0.1161   0.7169
     1.1337   1.7331   2.4744   2.9609

          k = 0.3750 0.0722 0.0000 ( 19244 PWs)   bands (ev):

   -48.0702 -46.9735 -46.1512 -46.0066  -5.3444  -5.2469  -5.1741  -5.1113
    -5.0141  -4.8184  -4.6920  -4.6474  -4.5444  -4.4690  -4.4081  -4.2650
    -4.1917  -4.1001  -3.9865  -3.7625  -2.2674  -0.4888  -0.0876   0.6679
     1.1400   1.8346   2.4711   3.0029

          k = 0.3750 0.2165 0.0000 ( 19265 PWs)   bands (ev):

   -48.0702 -46.9736 -46.1512 -46.0066  -5.3705  -5.2076  -5.1530  -5.0554
    -4.9079  -4.8359  -4.7284  -4.5939  -4.5154  -4.4832  -4.4467  -4.3212
    -4.3027  -4.0291  -3.7601  -3.7177  -2.0579  -1.0874   0.0334   0.5743
     1.2460   1.5846   2.4819   3.0620

          k = 0.3750-0.7939 0.0000 ( 19267 PWs)   bands (ev):

   -48.0702 -46.9735 -46.1512 -46.0066  -5.3067  -5.1398  -5.1273  -4.9983
    -4.8678  -4.8128  -4.7146  -4.6130  -4.5330  -4.4966  -4.4557  -4.3822
    -4.2841  -4.0471  -3.8887  -3.1464  -2.0704  -1.1507  -0.0740   0.4898
     0.6002   1.8020   2.3127   2.7285

          k = 0.3750-0.6495 0.0000 ( 19252 PWs)   bands (ev):

   -48.0701 -46.9735 -46.1511 -46.0066  -5.1668  -5.0967  -5.0689  -5.0106
    -4.9474  -4.8565  -4.6259  -4.5831  -4.5251  -4.4991  -4.4181  -4.3612
    -4.2574  -4.1601  -4.0818  -2.3282  -2.3173  -1.3518  -0.1244   0.1480
     0.9942   1.2712   1.8575   2.6189

          k = 0.3750-0.5052 0.0000 ( 19252 PWs)   bands (ev):

   -48.0701 -46.9735 -46.1511 -46.0066  -5.2342  -5.1245  -5.0278  -4.9826
    -4.9237  -4.8329  -4.6387  -4.5514  -4.5273  -4.4904  -4.4151  -4.3683
    -4.2392  -4.1797  -4.1126  -2.3722  -2.2720  -1.3720  -0.1416   0.1545
     1.0277   1.2522   1.7333   2.6539

          k = 0.3750-0.3608 0.0000 ( 19267 PWs)   bands (ev):

   -48.0702 -46.9735 -46.1512 -46.0066  -5.3841  -5.1637  -5.1040  -4.9584
    -4.8734  -4.7233  -4.6431  -4.6312  -4.5267  -4.5095  -4.4499  -4.4003
    -4.2737  -4.0851  -3.9141  -3.1678  -2.0478  -1.1875  -0.1448   0.5509
     0.5870   1.7162   2.1780   2.6366

          k =-0.5000 0.2887 0.0000 ( 19296 PWs)   bands (ev):

   -48.0702 -46.9736 -46.1513 -46.0067  -5.4389  -5.1587  -5.1511  -4.9121
    -4.7657  -4.7148  -4.6856  -4.5790  -4.5618  -4.5219  -4.4688  -4.3985
    -4.3767  -4.0574  -3.7797  -2.8901  -2.5830  -0.8975  -0.5923   0.5946
     0.9743   1.5373   2.2550   2.9573

          k =-0.5000 0.4330 0.0000 ( 19267 PWs)   bands (ev):

   -48.0702 -46.9735 -46.1512 -46.0066  -5.3841  -5.1637  -5.1040  -4.9584
    -4.8734  -4.7233  -4.6431  -4.6312  -4.5267  -4.5095  -4.4499  -4.4003
    -4.2737  -4.0851  -3.9141  -3.1678  -2.0478  -1.1875  -0.1448   0.5509
     0.5870   1.7162   2.1780   2.6366

          k =-0.5000 0.5774 0.0000 ( 19252 PWs)   bands (ev):

   -48.0701 -46.9735 -46.1512 -46.0066  -5.2536  -5.1684  -5.1146  -5.0104
    -4.9791  -4.7018  -4.6747  -4.5900  -4.5429  -4.5235  -4.4376  -4.3462
    -4.1950  -4.1174  -4.0588  -3.2735  -1.6698  -1.1325  -0.4194   0.4790
     1.1111   1.3118   2.0970   2.5581

          k =-0.5000 0.7217 0.0000 ( 19267 PWs)   bands (ev):

   -48.0702 -46.9735 -46.1512 -46.0066  -5.3093  -5.1655  -5.1073  -5.0128
    -4.9242  -4.7230  -4.6641  -4.6151  -4.5463  -4.4999  -4.4597  -4.3981
    -4.2974  -4.0503  -3.8912  -3.1500  -2.0661  -1.1407  -0.1397   0.4557
     0.6761   1.8799   2.3031   2.5552

          k =-0.5000-0.2887 0.0000 ( 19296 PWs)   bands (ev):

   -48.0702 -46.9736 -46.1513 -46.0067  -5.3631  -5.1827  -5.1244  -4.9576
    -4.8322  -4.7762  -4.6823  -4.5922  -4.5438  -4.5182  -4.4661  -4.4115
    -4.3752  -4.0172  -3.7612  -2.8417  -2.6144  -0.8656  -0.5797   0.6123
     0.9925   1.6311   2.5593   2.6634

     the Fermi energy is    -0.0330 ev

!    total energy              =    -312.28735341 Ry
     estimated scf accuracy    <       0.00000004 Ry
     smearing contrib. (-TS)   =      -0.00035090 Ry
     internal energy E=F+TS    =    -312.28700250 Ry

     The total energy is F=E-TS. E is the sum of the following terms:
     one-electron contribution =   -1955.75631115 Ry
     hartree contribution      =     994.12888521 Ry
     xc contribution           =     -81.33218880 Ry
     ewald contribution        =     730.75898745 Ry
     DFT-D3 Dispersion         =      -0.08637521 Ry

     convergence has been achieved in   6 iterations

     negative rho (up, down):  1.521E-05 0.000E+00

     Forces acting on atoms (cartesian axes, Ry/au):

     atom    1 type  1   force =     0.01464833   -0.00845813   -0.00479727
     atom    2 type  1   force =     0.00182784   -0.00105465    0.00592985
     atom    3 type  1   force =    -0.00016585    0.00009624    0.01178760
     atom    4 type  2   force =     0.00312852   -0.00180642    0.00665229
     atom    5 type  2   force =    -0.00088061    0.00050836   -0.01516337
     atom    6 type  2   force =    -0.00036552    0.00021087   -0.00505734
     atom    7 type  2   force =    -0.01819271    0.01050372    0.00064825
     The non-local contrib.  to forces
     atom    1 type  1   force =     0.00745100   -0.00430190    0.04639259
     atom    2 type  1   force =     0.00018447   -0.00010495    0.01018889
     atom    3 type  1   force =     0.00188442   -0.00108669    0.00845099
     atom    4 type  2   force =     0.00019322   -0.00011152    0.01164140
     atom    5 type  2   force =    -0.00092298    0.00053293   -0.01350970
     atom    6 type  2   force =    -0.00054803    0.00031650   -0.06264715
     atom    7 type  2   force =    -0.02122455    0.01225388    0.05922511
     The ionic contribution  to forces
     atom    1 type  1   force =     0.64983702   -0.37523103   42.96056389
     atom    2 type  1   force =    -0.00874217    0.00510465    1.46295209
     atom    3 type  1   force =     0.00569626   -0.00329623  -45.59610403
     atom    4 type  2   force =     0.03625274   -0.02092989    7.94554303
     atom    5 type  2   force =    -0.00119368    0.00068613   -7.46875908
     atom    6 type  2   force =    -0.00045939    0.00026850  -17.33852747
     atom    7 type  2   force =    -0.68139077    0.39339787   18.03433156
     The local contribution  to forces
     atom    1 type  1   force =    -0.63977441    0.36942065  -43.00735893
     atom    2 type  1   force =     0.01079301   -0.00628801   -1.46569517
     atom    3 type  1   force =    -0.00775439    0.00448263   45.59560802
     atom    4 type  2   force =    -0.03329901    0.01922418   -7.94961039
     atom    5 type  2   force =     0.00123587   -0.00071026    7.46623108
     atom    6 type  2   force =     0.00065352   -0.00038029   17.39448043
     atom    7 type  2   force =     0.68410305   -0.39496339  -18.09171126
     The core correction contribution to forces
     atom    1 type  1   force =    -0.00303916    0.00175473   -0.00215947
     atom    2 type  1   force =    -0.00008819    0.00005076   -0.00231441
     atom    3 type  1   force =     0.00001701   -0.00000984    0.00231522
     atom    4 type  2   force =     0.00000000    0.00000000    0.00000000
     atom    5 type  2   force =     0.00000000    0.00000000    0.00000000
     atom    6 type  2   force =     0.00000000    0.00000000    0.00000000
     atom    7 type  2   force =     0.00000000    0.00000000    0.00000000
     The Hubbard contrib.    to forces
     atom    1 type  1   force =     0.00000000    0.00000000    0.00000000
     atom    2 type  1   force =     0.00000000    0.00000000    0.00000000
     atom    3 type  1   force =     0.00000000    0.00000000    0.00000000
     atom    4 type  2   force =     0.00000000    0.00000000    0.00000000
     atom    5 type  2   force =     0.00000000    0.00000000    0.00000000
     atom    6 type  2   force =     0.00000000    0.00000000    0.00000000
     atom    7 type  2   force =     0.00000000    0.00000000    0.00000000
     The SCF correction term to forces
     atom    1 type  1   force =     0.00031377   -0.00018120    0.00025254
     atom    2 type  1   force =    -0.00006406    0.00003583    0.00035744
     atom    3 type  1   force =     0.00001191   -0.00000558   -0.00009474
     atom    4 type  2   force =    -0.00000319    0.00000220    0.00010332
     atom    5 type  2   force =     0.00001525   -0.00000893   -0.00000214
     atom    6 type  2   force =     0.00000001   -0.00000032    0.00000196
     atom    7 type  2   force =    -0.00005214    0.00003018    0.00005011

     DFT-D3 dispersion contribution to forces:
     atom    1 type  1   force =    -0.00012755    0.00007371   -0.00245993
     atom    2 type  1   force =    -0.00024287    0.00014015    0.00046896
     atom    3 type  1   force =    -0.00000872    0.00000504    0.00164010
     atom    4 type  2   force =    -0.00000290    0.00000168   -0.00099710
     atom    5 type  2   force =    -0.00000273    0.00000157    0.00090443
     atom    6 type  2   force =     0.00000073   -0.00000042    0.00166286
     atom    7 type  2   force =     0.00038405   -0.00022172   -0.00121931

     Total force =     0.035263     Total SCF correction =     0.000595


     Computing stress (Cartesian axis) and pressure


     negative rho (up, down):  1.521E-05 0.000E+00
          total   stress  (Ry/bohr**3)                   (kbar)     P=       -7.43
  -0.00005825  -0.00000684  -0.00002536           -8.57       -1.01       -3.73
  -0.00000684  -0.00006614   0.00001464           -1.01       -9.73        2.15
  -0.00002536   0.00001464  -0.00002712           -3.73        2.15       -3.99

     Energy error            =      1.6E-03 Ry
     Gradient error          =      1.8E-02 Ry/Bohr

     number of scf cycles    =   3
     number of bfgs steps    =   2

     energy             old  =    -312.2857260177 Ry
     energy             new  =    -312.2873534060 Ry

     CASE: energy            _new < energy            _old

     new trust radius        =       0.0389407155 bohr
     new conv_thr            =       0.0000001627 Ry


ATOMIC_POSITIONS (angstrom)
Ag            1.1386862951        0.6174468822       14.3323862774
Ag            3.3157849665        1.9101926547       12.7182234805
Ag            5.5200232180        3.1872826629       10.9276676788
Li            5.5253619288        3.1842074045       13.6772971721
Li            1.1019615652        0.6386361819       11.7691554169
Li            3.3113793198        1.9127338588        9.9884782750
Li            4.3760616316        1.2980502044       16.3530123045



     Writing config-only to output data dir ./LiAg_mp-2426_111_bridge_0/LiAg_mp-2426_111_bridge_0.save/
     NEW-OLD atomic charge density approx. for the potential

     negative rho (up, down):  1.579E-05 0.000E+00

     total cpu time spent up to now is       18.3 secs

     per-process dynamical memory:   214.2 Mb

     Self-consistent Calculation

     iteration #  1     ecut=    55.00 Ry     beta= 0.30
     Davidson diagonalization with overlap
     ethr =  1.00E-06,  avg # of iterations =  7.0

     Threshold (ethr) on eigenvalues was too large:
     Diagonalizing with lowered threshold

     Davidson diagonalization with overlap
     ethr =  4.49E-08,  avg # of iterations =  2.0

     negative rho (up, down):  1.541E-05 0.000E+00

     total cpu time spent up to now is       19.0 secs

     total energy              =    -312.28955269 Ry
     estimated scf accuracy    <       0.00002028 Ry

     iteration #  2     ecut=    55.00 Ry     beta= 0.30
     Davidson diagonalization with overlap
     ethr =  4.51E-08,  avg # of iterations =  1.3

     negative rho (up, down):  1.715E-05 0.000E+00

     total cpu time spent up to now is       19.3 secs

     total energy              =    -312.28955074 Ry
     estimated scf accuracy    <       0.00002601 Ry

     iteration #  3     ecut=    55.00 Ry     beta= 0.30
     Davidson diagonalization with overlap
     ethr =  4.51E-08,  avg # of iterations =  1.4

     negative rho (up, down):  1.543E-05 0.000E+00

     total cpu time spent up to now is       19.5 secs

     total energy              =    -312.28955299 Ry
     estimated scf accuracy    <       0.00003609 Ry

     iteration #  4     ecut=    55.00 Ry     beta= 0.30
     Davidson diagonalization with overlap
     ethr =  4.51E-08,  avg # of iterations =  1.1

     negative rho (up, down):  1.533E-05 0.000E+00

     total cpu time spent up to now is       19.7 secs

     total energy              =    -312.28955515 Ry
     estimated scf accuracy    <       0.00000116 Ry

     iteration #  5     ecut=    55.00 Ry     beta= 0.30
     Davidson diagonalization with overlap
     ethr =  2.57E-09,  avg # of iterations =  3.3

     negative rho (up, down):  1.629E-05 0.000E+00

     total cpu time spent up to now is       20.1 secs

     total energy              =    -312.28955550 Ry
     estimated scf accuracy    <       0.00000030 Ry

     iteration #  6     ecut=    55.00 Ry     beta= 0.30
     Davidson diagonalization with overlap
     ethr =  6.72E-10,  avg # of iterations =  4.0

     negative rho (up, down):  1.508E-05 0.000E+00

     total cpu time spent up to now is       20.4 secs

     End of self-consistent calculation

          k = 0.0000 0.0000 0.0000 ( 19117 PWs)   bands (ev):

   -48.0691 -46.9788 -46.1423 -45.9987  -5.7173  -5.3618  -5.3395  -5.2253
    -5.2044  -5.1771  -4.7864  -4.7113  -4.6955  -4.4806  -4.4385  -4.0964
    -4.0545  -4.0232  -3.7095  -3.6989  -3.3647  -1.2807   0.0822   1.5755
     2.5455   2.7259   3.7346   4.1062

          k = 0.0000 0.1443 0.0000 ( 19191 PWs)   bands (ev):

   -48.0692 -46.9789 -46.1424 -45.9988  -5.6147  -5.3378  -5.3086  -5.2197
    -5.1722  -5.1240  -4.7621  -4.6994  -4.6586  -4.4865  -4.4394  -4.1263
    -4.0807  -4.0225  -3.8270  -3.7086  -3.1821  -1.1294   0.2244   1.7115
     2.5816   2.7042   2.9053   3.1150

          k = 0.0000 0.2887 0.0000 ( 19227 PWs)   bands (ev):

   -48.0692 -46.9789 -46.1423 -45.9988  -5.4215  -5.2733  -5.2188  -5.1895
    -5.0525  -4.9876  -4.7344  -4.6316  -4.5674  -4.4905  -4.3905  -4.1988
    -4.1676  -4.0571  -3.9902  -3.7302  -2.7097  -0.6993   0.3803   0.9219
     1.9768   2.1270   2.4103   3.1666

          k = 0.0000 0.4330 0.0000 ( 19265 PWs)   bands (ev):

   -48.0692 -46.9789 -46.1423 -45.9988  -5.3600  -5.2041  -5.1401  -5.0499
    -4.8987  -4.8269  -4.7195  -4.5832  -4.5066  -4.4702  -4.4383  -4.3082
    -4.2903  -4.0143  -3.7463  -3.7084  -2.0453  -1.0803   0.0350   0.5809
     1.2541   1.5890   2.4897   3.0689

          k = 0.0000-0.5774 0.0000 ( 19296 PWs)   bands (ev):

   -48.0692 -46.9789 -46.1423 -45.9989  -5.3529  -5.1784  -5.1111  -4.9510
    -4.8189  -4.7686  -4.6736  -4.5848  -4.5306  -4.5044  -4.4571  -4.4026
    -4.3645  -4.0016  -3.7476  -2.8380  -2.5998  -0.8543  -0.5766   0.6108
     0.9997   1.6415   2.5650   2.6716

          k = 0.1250-0.0722 0.0000 ( 19191 PWs)   bands (ev):

   -48.0692 -46.9789 -46.1424 -45.9988  -5.6264  -5.3379  -5.3080  -5.1959
    -5.1780  -5.1290  -4.7428  -4.6911  -4.6783  -4.4774  -4.4502  -4.1159
    -4.0675  -4.0517  -3.8244  -3.7180  -3.1761  -1.1330   0.2310   1.6955
     2.5468   2.7399   2.9052   3.1008

          k = 0.1250 0.0722 0.0000 ( 19191 PWs)   bands (ev):

   -48.0692 -46.9789 -46.1424 -45.9988  -5.6147  -5.3378  -5.3086  -5.2197
    -5.1722  -5.1241  -4.7621  -4.6994  -4.6586  -4.4865  -4.4394  -4.1263
    -4.0807  -4.0226  -3.8270  -3.7086  -3.1821  -1.1294   0.2244   1.7115
     2.5816   2.7042   2.9053   3.1150

          k = 0.1250 0.2165 0.0000 ( 19214 PWs)   bands (ev):

   -48.0692 -46.9789 -46.1423 -45.9988  -5.4442  -5.2880  -5.2533  -5.1879
    -5.1495  -5.0135  -4.7242  -4.6691  -4.5967  -4.5164  -4.3952  -4.2087
    -4.0886  -4.0320  -3.9686  -3.7353  -2.8630  -0.8313   0.4669   1.4419
     1.7396   2.0762   2.9672   3.1469

          k = 0.1250 0.3608 0.0000 ( 19244 PWs)   bands (ev):

   -48.0692 -46.9788 -46.1423 -45.9988  -5.3147  -5.1917  -5.1711  -5.1170
    -5.0191  -4.8830  -4.6889  -4.5864  -4.5521  -4.5349  -4.3982  -4.2347
    -4.1347  -4.0650  -3.9798  -3.7397  -2.2681  -0.4411  -0.0936   0.7032
     1.1219   1.8307   2.5279   2.9861

          k = 0.1250-0.6495 0.0000 ( 19267 PWs)   bands (ev):

   -48.0692 -46.9788 -46.1422 -45.9988  -5.2964  -5.1350  -5.1143  -4.9918
    -4.8578  -4.8010  -4.7062  -4.6052  -4.5215  -4.4869  -4.4434  -4.3736
    -4.2708  -4.0320  -3.8764  -3.1372  -2.0588  -1.1438  -0.0693   0.4946
     0.6029   1.8105   2.3175   2.7338

          k = 0.1250-0.5052 0.0000 ( 19267 PWs)   bands (ev):

   -48.0692 -46.9788 -46.1422 -45.9988  -5.2993  -5.1613  -5.0939  -5.0067
    -4.9152  -4.7145  -4.6542  -4.6073  -4.5327  -4.4897  -4.4455  -4.3892
    -4.2851  -4.0354  -3.8778  -3.1425  -2.0541  -1.1343  -0.1327   0.4584
     0.6807   1.8868   2.3074   2.5624

          k = 0.1250-0.3608 0.0000 ( 19244 PWs)   bands (ev):

   -48.0692 -46.9788 -46.1423 -45.9988  -5.3363  -5.2402  -5.1669  -5.1022
    -5.0108  -4.8077  -4.6843  -4.6348  -4.5358  -4.4594  -4.3950  -4.2533
    -4.1735  -4.0897  -3.9729  -3.7478  -2.2577  -0.4785  -0.0841   0.6763
     1.1424   1.8407   2.4808   3.0004

          k = 0.1250-0.2165 0.0000 ( 19214 PWs)   bands (ev):

   -48.0692 -46.9789 -46.1423 -45.9988  -5.4848  -5.3054  -5.2349  -5.1615
    -5.1372  -5.0005  -4.7114  -4.6684  -4.6027  -4.4774  -4.4215  -4.1871
    -4.1187  -4.0399  -3.9800  -3.7434  -2.8541  -0.8437   0.4846   1.4525
     1.6469   2.0834   2.9941   3.1272

          k = 0.2500-0.1443 0.0000 ( 19227 PWs)   bands (ev):

   -48.0692 -46.9789 -46.1423 -45.9988  -5.4883  -5.2428  -5.2308  -5.1502
    -5.0303  -4.9880  -4.7081  -4.6061  -4.6010  -4.4675  -4.3977  -4.2056
    -4.1368  -4.0933  -4.0166  -3.7390  -2.7024  -0.7148   0.4112   0.8723
     1.9946   2.0585   2.3917   3.1603

          k = 0.2500 0.0000 0.0000 ( 19214 PWs)   bands (ev):

   -48.0692 -46.9789 -46.1423 -45.9988  -5.4848  -5.3054  -5.2349  -5.1615
    -5.1372  -5.0005  -4.7114  -4.6684  -4.6027  -4.4774  -4.4215  -4.1871
    -4.1187  -4.0399  -3.9800  -3.7434  -2.8541  -0.8437   0.4846   1.4525
     1.6469   2.0834   2.9941   3.1272

[...]
     2.3727   2.8402   2.9325   2.9774

          k = 0.0000 0.2887 0.0000 ( 19227 PWs)   bands (ev):

   -47.1968 -47.1955 -46.1797 -46.1762  -5.6150  -5.4914  -5.4072  -5.3837
    -5.2610  -5.2349  -4.9406  -4.8027  -4.7557  -4.6315  -4.5478  -4.3239
    -4.3163  -4.1963  -4.1450  -3.8705  -2.8621  -0.6802   0.3567   1.1853
     1.7095   2.0984   2.5924   3.4123

          k = 0.0000 0.4330 0.0000 ( 19265 PWs)   bands (ev):

   -47.1968 -47.1955 -46.1794 -46.1765  -5.5368  -5.4565  -5.3471  -5.2179
    -5.0671  -5.0236  -4.9052  -4.7354  -4.6391  -4.6277  -4.6026  -4.4745
    -4.4527  -4.1530  -3.9374  -3.8873  -2.2330  -1.3333   0.0873   0.3062
     0.9411   2.0554   2.7064   3.0992

          k = 0.0000-0.5774 0.0000 ( 19296 PWs)   bands (ev):

   -47.1969 -47.1955 -46.1791 -46.1768  -5.5378  -5.4248  -5.3202  -5.1281
    -4.9838  -4.8410  -4.8283  -4.8019  -4.7338  -4.6256  -4.6158  -4.5899
    -4.5316  -4.1387  -3.8876  -3.1191  -2.7966  -1.0536  -0.8947   0.5998
     0.6633   1.9622   2.8112   2.9237

          k = 0.1250-0.0722 0.0000 ( 19191 PWs)   bands (ev):

   -47.1968 -47.1955 -46.1801 -46.1759  -5.8451  -5.4963  -5.4696  -5.4597
    -5.4246  -5.3636  -4.9640  -4.9002  -4.8952  -4.6049  -4.5859  -4.2348
    -4.2209  -4.1769  -3.9528  -3.8399  -3.2977  -1.0916   0.7636   2.1643
     2.3714   2.8402   2.9325   2.9773

          k = 0.1250 0.0722 0.0000 ( 19191 PWs)   bands (ev):

   -47.1968 -47.1955 -46.1801 -46.1759  -5.8444  -5.4954  -5.4657  -5.4598
    -5.4274  -5.3663  -4.9644  -4.8986  -4.8961  -4.6022  -4.5886  -4.2296
    -4.2199  -4.1830  -3.9490  -3.8451  -3.2972  -1.0914   0.7636   2.1635
     2.3727   2.8402   2.9325   2.9774

          k = 0.1250 0.2165 0.0000 ( 19214 PWs)   bands (ev):

   -47.1968 -47.1955 -46.1798 -46.1761  -5.6617  -5.4647  -5.4182  -5.4160
    -5.3998  -5.2370  -4.9269  -4.8545  -4.7990  -4.6300  -4.5579  -4.3307
    -4.2226  -4.1979  -4.1049  -3.8807  -3.0008  -0.8033   0.9604   1.1932
     1.5279   2.4635   2.9517   3.0455

          k = 0.1250 0.3608 0.0000 ( 19244 PWs)   bands (ev):

   -47.1968 -47.1955 -46.1794 -46.1764  -5.4943  -5.4325  -5.3607  -5.3121
    -5.2607  -5.0202  -4.8870  -4.7655  -4.7125  -4.6298  -4.5728  -4.3764
    -4.2941  -4.2349  -4.1654  -3.8991  -2.4406  -0.6650  -0.0674   0.4810
     1.1120   1.9262   2.6263   2.9273

          k = 0.1250-0.6495 0.0000 ( 19267 PWs)   bands (ev):

   -47.1968 -47.1955 -46.1791 -46.1767  -5.4803  -5.3745  -5.3246  -5.1702
    -5.0707  -4.9117  -4.8171  -4.7757  -4.7398  -4.6299  -4.5741  -4.5417
    -4.4462  -4.1703  -4.0383  -3.3789  -2.2795  -1.3874  -0.3974   0.2946
     0.5822   1.9878   2.2938   2.9003

          k = 0.1250-0.5052 0.0000 ( 19267 PWs)   bands (ev):

   -47.1968 -47.1955 -46.1791 -46.1767  -5.4803  -5.3793  -5.3199  -5.1708
    -5.0718  -4.9127  -4.8156  -4.7767  -4.7404  -4.6286  -4.5724  -4.5398
    -4.4481  -4.1705  -4.0367  -3.3807  -2.2788  -1.3880  -0.3948   0.2930
     0.5812   1.9921   2.2920   2.8962

          k = 0.1250-0.3608 0.0000 ( 19244 PWs)   bands (ev):

   -47.1968 -47.1955 -46.1795 -46.1764  -5.4973  -5.4359  -5.3539  -5.3136
    -5.2647  -5.0171  -4.8849  -4.7664  -4.7129  -4.6326  -4.5715  -4.3752
    -4.2921  -4.2358  -4.1642  -3.8982  -2.4423  -0.6625  -0.0675   0.4802
     1.1129   1.9281   2.6213   2.9274

          k = 0.1250-0.2165 0.0000 ( 19214 PWs)   bands (ev):

   -47.1968 -47.1955 -46.1798 -46.1761  -5.6645  -5.4639  -5.4217  -5.4143
    -5.4023  -5.2309  -4.9255  -4.8552  -4.7998  -4.6333  -4.5546  -4.3360
    -4.2225  -4.1926  -4.1072  -3.8760  -3.0018  -0.8037   0.9594   1.1978
     1.5259   2.4627   2.9503   3.0491

          k = 0.2500-0.1443 0.0000 ( 19227 PWs)   bands (ev):

   -47.1968 -47.1955 -46.1798 -46.1762  -5.6186  -5.4970  -5.4138  -5.3747
    -5.2573  -5.2318  -4.9405  -4.8018  -4.7570  -4.6343  -4.5448  -4.3296
    -4.3166  -4.1961  -4.1415  -3.8649  -2.8635  -0.6810   0.3587   1.1836
     1.7102   2.0973   2.5921   3.4099

          k = 0.2500 0.0000 0.0000 ( 19214 PWs)   bands (ev):

   -47.1968 -47.1955 -46.1798 -46.1761  -5.6645  -5.4639  -5.4217  -5.4143
    -5.4023  -5.2309  -4.9255  -4.8552  -4.7998  -4.6333  -4.5546  -4.3360
    -4.2225  -4.1926  -4.1072  -3.8760  -3.0018  -0.8037   0.9594   1.1978
     1.5259   2.4627   2.9503   3.0491

          k = 0.2500 0.1443 0.0000 ( 19227 PWs)   bands (ev):

   -47.1968 -47.1955 -46.1797 -46.1762  -5.6150  -5.4914  -5.4072  -5.3837
    -5.2610  -5.2349  -4.9406  -4.8027  -4.7557  -4.6315  -4.5478  -4.3239
    -4.3163  -4.1963  -4.1450  -3.8705  -2.8621  -0.6802   0.3567   1.1853
     1.7095   2.0984   2.5924   3.4122

          k = 0.2500 0.2887 0.0000 ( 19244 PWs)   bands (ev):

   -47.1968 -47.1955 -46.1794 -46.1764  -5.4943  -5.4325  -5.3607  -5.3121
    -5.2607  -5.0202  -4.8870  -4.7655  -4.7125  -4.6298  -4.5728  -4.3764
    -4.2941  -4.2349  -4.1654  -3.8991  -2.4406  -0.6650  -0.0674   0.4810
     1.1120   1.9262   2.6263   2.9273

          k = 0.2500-0.7217 0.0000 ( 19252 PWs)   bands (ev):

   -47.1968 -47.1954 -46.1791 -46.1767  -5.3602  -5.3245  -5.2962  -5.2553
    -5.2306  -4.8599  -4.8222  -4.8000  -4.7536  -4.6133  -4.6058  -4.4363
    -4.2775  -4.2640  -4.2346  -3.4849  -1.8861  -1.3801  -0.6551   0.5599
     0.7738   1.0788   2.5096   3.1464

          k = 0.2500-0.5774 0.0000 ( 19252 PWs)   bands (ev):

   -47.1967 -47.1954 -46.1789 -46.1768  -5.3262  -5.2912  -5.2497  -5.2041
    -5.0905  -5.0794  -4.7950  -4.7393  -4.6875  -4.6206  -4.5388  -4.4695
    -4.4170  -4.2794  -4.2572  -2.5865  -2.5356  -1.6121  -0.4330  -0.0839
     0.7687   1.2802   2.0062   3.2236

          k = 0.2500-0.4330 0.0000 ( 19252 PWs)   bands (ev):

   -47.1968 -47.1954 -46.1791 -46.1767  -5.3705  -5.3257  -5.2959  -5.2547
    -5.2246  -4.8603  -4.8204  -4.8017  -4.7518  -4.6121  -4.6075  -4.4366
    -4.2782  -4.2616  -4.2284  -3.4874  -1.8924  -1.3705  -0.6581   0.5590
     0.7773   1.0786   2.5027   3.1446

          k = 0.2500-0.2887 0.0000 ( 19244 PWs)   bands (ev):

   -47.1968 -47.1955 -46.1795 -46.1764  -5.4992  -5.4404  -5.3653  -5.3049
    -5.2566  -5.0162  -4.8857  -4.7653  -4.7127  -4.6332  -4.5732  -4.3761
    -4.2957  -4.2334  -4.1610  -3.8957  -2.4436  -0.6629  -0.0674   0.4823
     1.1115   1.9255   2.6239   2.9265

          k = 0.3750-0.2165 0.0000 ( 19265 PWs)   bands (ev):

   -47.1968 -47.1955 -46.1794 -46.1765  -5.5392  -5.4653  -5.3553  -5.2049
    -5.0657  -5.0202  -4.9049  -4.7332  -4.6406  -4.6303  -4.6016  -4.4745
    -4.4562  -4.1490  -3.9362  -3.8817  -2.2381  -1.3304   0.0844   0.3091
     0.9423   2.0524   2.7038   3.0999

          k = 0.3750-0.0722 0.0000 ( 19244 PWs)   bands (ev):

   -47.1968 -47.1955 -46.1795 -46.1764  -5.4992  -5.4404  -5.3653  -5.3049
    -5.2566  -5.0162  -4.8857  -4.7653  -4.7127  -4.6332  -4.5732  -4.3761
    -4.2957  -4.2334  -4.1610  -3.8957  -2.4436  -0.6629  -0.0674   0.4823
     1.1115   1.9255   2.6239   2.9265

          k = 0.3750 0.0722 0.0000 ( 19244 PWs)   bands (ev):

   -47.1968 -47.1955 -46.1795 -46.1764  -5.4973  -5.4359  -5.3539  -5.3136
    -5.2647  -5.0171  -4.8849  -4.7664  -4.7129  -4.6326  -4.5715  -4.3752
    -4.2921  -4.2358  -4.1642  -3.8982  -2.4423  -0.6625  -0.0675   0.4802
     1.1129   1.9281   2.6213   2.9274

          k = 0.3750 0.2165 0.0000 ( 19265 PWs)   bands (ev):

   -47.1968 -47.1955 -46.1794 -46.1765  -5.5368  -5.4565  -5.3471  -5.2179
    -5.0671  -5.0236  -4.9052  -4.7354  -4.6391  -4.6277  -4.6026  -4.4745
    -4.4527  -4.1530  -3.9374  -3.8873  -2.2330  -1.3333   0.0873   0.3062
     0.9412   2.0554   2.7064   3.0992

          k = 0.3750-0.7939 0.0000 ( 19267 PWs)   bands (ev):

   -47.1968 -47.1955 -46.1791 -46.1767  -5.4803  -5.3745  -5.3246  -5.1702
    -5.0707  -4.9117  -4.8171  -4.7757  -4.7398  -4.6299  -4.5741  -4.5417
    -4.4462  -4.1703  -4.0383  -3.3789  -2.2795  -1.3874  -0.3974   0.2946
     0.5822   1.9878   2.2938   2.9003

          k = 0.3750-0.6495 0.0000 ( 19252 PWs)   bands (ev):

   -47.1967 -47.1954 -46.1789 -46.1768  -5.3262  -5.2912  -5.2497  -5.2041
    -5.0905  -5.0794  -4.7950  -4.7393  -4.6875  -4.6206  -4.5388  -4.4695
    -4.4170  -4.2794  -4.2572  -2.5865  -2.5356  -1.6121  -0.4330  -0.0839
     0.7687   1.2802   2.0062   3.2236

          k = 0.3750-0.5052 0.0000 ( 19252 PWs)   bands (ev):

   -47.1967 -47.1954 -46.1789 -46.1768  -5.3285  -5.2985  -5.2582  -5.1897
    -5.0887  -5.0796  -4.7936  -4.7389  -4.6888  -4.6224  -4.5426  -4.4635
    -4.4191  -4.2766  -4.2545  -2.5769  -2.5492  -1.6079  -0.4366  -0.0826
     0.7718   1.2831   1.9972   3.2243

          k = 0.3750-0.3608 0.0000 ( 19267 PWs)   bands (ev):

   -47.1968 -47.1955 -46.1791 -46.1767  -5.4826  -5.3856  -5.3310  -5.1563
    -5.0697  -4.9118  -4.8164  -4.7747  -4.7370  -4.6318  -4.5745  -4.5418
    -4.4487  -4.1663  -4.0320  -3.3789  -2.2854  -1.3835  -0.3981   0.2951
     0.5846   1.9882   2.2874   2.8970

          k =-0.5000 0.2887 0.0000 ( 19296 PWs)   bands (ev):

   -47.1969 -47.1955 -46.1792 -46.1768  -5.5400  -5.4344  -5.3291  -5.1127
    -4.9837  -4.8407  -4.8318  -4.7988  -4.7226  -4.6270  -4.6215  -4.5880
    -4.5377  -4.1343  -3.8823  -3.1078  -2.8108  -1.0498  -0.8985   0.6035
     0.6646   1.9547   2.8086   2.9244

          k =-0.5000 0.4330 0.0000 ( 19267 PWs)   bands (ev):

   -47.1968 -47.1955 -46.1791 -46.1767  -5.4826  -5.3856  -5.3310  -5.1563
    -5.0697  -4.9118  -4.8164  -4.7747  -4.7370  -4.6318  -4.5745  -4.5418
    -4.4487  -4.1663  -4.0320  -3.3789  -2.2854  -1.3835  -0.3981   0.2951
     0.5846   1.9882   2.2874   2.8970

          k =-0.5000 0.5774 0.0000 ( 19252 PWs)   bands (ev):

   -47.1968 -47.1954 -46.1791 -46.1767  -5.3705  -5.3257  -5.2959  -5.2547
    -5.2246  -4.8603  -4.8204  -4.8017  -4.7518  -4.6121  -4.6075  -4.4366
    -4.2782  -4.2616  -4.2284  -3.4874  -1.8924  -1.3705  -0.6581   0.5590
     0.7773   1.0786   2.5027   3.1446

          k =-0.5000 0.7217 0.0000 ( 19267 PWs)   bands (ev):

   -47.1968 -47.1955 -46.1791 -46.1767  -5.4803  -5.3793  -5.3199  -5.1708
    -5.0718  -4.9127  -4.8156  -4.7767  -4.7404  -4.6286  -4.5724  -4.5398
    -4.4481  -4.1705  -4.0367  -3.3806  -2.2788  -1.3880  -0.3948   0.2930
     0.5812   1.9921   2.2920   2.8962

          k =-0.5000-0.2887 0.0000 ( 19296 PWs)   bands (ev):

   -47.1969 -47.1955 -46.1791 -46.1768  -5.5378  -5.4248  -5.3202  -5.1281
    -4.9838  -4.8410  -4.8283  -4.8019  -4.7338  -4.6256  -4.6158  -4.5899
    -4.5316  -4.1387  -3.8876  -3.1191  -2.7966  -1.0536  -0.8947   0.5997
     0.6633   1.9622   2.8112   2.9237

     the Fermi energy is    -0.1511 ev

!    total energy              =    -312.34192510 Ry
     estimated scf accuracy    <          2.3E-09 Ry
     smearing contrib. (-TS)   =       0.00193615 Ry
     internal energy E=F+TS    =    -312.34386125 Ry

     The total energy is F=E-TS. E is the sum of the following terms:
     one-electron contribution =   -2022.61586217 Ry
     hartree contribution      =    1027.40844183 Ry
     xc contribution           =     -81.39441965 Ry
     ewald contribution        =     764.34382964 Ry
     DFT-D3 Dispersion         =      -0.08585090 Ry

     convergence has been achieved in   6 iterations

     negative rho (up, down):  2.091E-05 0.000E+00

     Forces acting on atoms (cartesian axes, Ry/au):

     atom    1 type  1   force =    -0.00012570    0.00007225   -0.00078451
     atom    2 type  1   force =    -0.00028481    0.00016429   -0.00036930
     atom    3 type  1   force =    -0.00011974    0.00006933    0.00076797
     atom    4 type  2   force =    -0.00032528    0.00018817    0.00025055
     atom    5 type  2   force =     0.00047066   -0.00027191    0.00007436
     atom    6 type  2   force =     0.00024620   -0.00014210   -0.00038777
     atom    7 type  2   force =     0.00013868   -0.00008003    0.00044871
     The non-local contrib.  to forces
     atom    1 type  1   force =    -0.00023134    0.00013352   -0.02326517
     atom    2 type  1   force =     0.00000831   -0.00000480   -0.00009833
     atom    3 type  1   force =     0.00048972   -0.00028270    0.02412715
     atom    4 type  2   force =    -0.00023754    0.00013740    0.00372540
     atom    5 type  2   force =     0.00043786   -0.00025292   -0.00364230
     atom    6 type  2   force =     0.00005782   -0.00003337   -0.06507299
     atom    7 type  2   force =     0.00018095   -0.00010445    0.06526420
     The ionic contribution  to forces
     atom    1 type  1   force =    -0.01695357    0.00978024   44.35892055
     atom    2 type  1   force =    -0.01398395    0.00806710    0.04493106
     atom    3 type  1   force =     0.01600308   -0.00922980  -44.37812335
     atom    4 type  2   force =    -0.00500303    0.00289809    8.74692970
     atom    5 type  2   force =     0.01211279   -0.00699879   -8.78309146
     atom    6 type  2   force =     0.00308093   -0.00177915  -17.82564721
     atom    7 type  2   force =     0.00474375   -0.00273769   17.83608071
     The local contribution  to forces
     atom    1 type  1   force =     0.01700800   -0.00981202  -44.33069571
     atom    2 type  1   force =     0.01359031   -0.00784000   -0.04539879
     atom    3 type  1   force =    -0.01666041    0.00960959   44.34897267
     atom    4 type  2   force =     0.00489893   -0.00283790   -8.74972166
     atom    5 type  2   force =    -0.01203708    0.00695498    8.78610686
     atom    6 type  2   force =    -0.00287783    0.00166189   17.88870585
     atom    7 type  2   force =    -0.00477945    0.00275832  -17.89926448
     The core correction contribution to forces
     atom    1 type  1   force =     0.00002566   -0.00001478   -0.00303380
     atom    2 type  1   force =     0.00004207   -0.00002427    0.00007194
     atom    3 type  1   force =     0.00001666   -0.00000965    0.00303146
     atom    4 type  2   force =     0.00000000    0.00000000    0.00000000
     atom    5 type  2   force =     0.00000000    0.00000000    0.00000000
     atom    6 type  2   force =     0.00000000    0.00000000    0.00000000
     atom    7 type  2   force =     0.00000000    0.00000000    0.00000000
     The Hubbard contrib.    to forces
     atom    1 type  1   force =     0.00000000    0.00000000    0.00000000
     atom    2 type  1   force =     0.00000000    0.00000000    0.00000000
     atom    3 type  1   force =     0.00000000    0.00000000    0.00000000
     atom    4 type  2   force =     0.00000000    0.00000000    0.00000000
     atom    5 type  2   force =     0.00000000    0.00000000    0.00000000
     atom    6 type  2   force =     0.00000000    0.00000000    0.00000000
     atom    7 type  2   force =     0.00000000    0.00000000    0.00000000
     The SCF correction term to forces
     atom    1 type  1   force =     0.00000267   -0.00000153    0.00006865
     atom    2 type  1   force =     0.00003594   -0.00002079    0.00010235
     atom    3 type  1   force =     0.00006808   -0.00003942    0.00001292
     atom    4 type  2   force =    -0.00000318    0.00000185    0.00002075
     atom    5 type  2   force =    -0.00001589    0.00000918    0.00001945
     atom    6 type  2   force =     0.00000120   -0.00000067    0.00000195
     atom    7 type  2   force =    -0.00000008    0.00000000    0.00000268

     DFT-D3 dispersion contribution to forces:
     atom    1 type  1   force =     0.00002593   -0.00001497   -0.00277317
     atom    2 type  1   force =     0.00002555   -0.00001474    0.00002834
     atom    3 type  1   force =    -0.00003382    0.00001952    0.00275299
     atom    4 type  2   force =     0.00002259   -0.00001305   -0.00069778
     atom    5 type  2   force =    -0.00002396    0.00001384    0.00068767
     atom    6 type  2   force =    -0.00001286    0.00000743    0.00163050
     atom    7 type  2   force =    -0.00000344    0.00000198   -0.00162854

     Total force =     0.001566     Total SCF correction =     0.000156


     Computing stress (Cartesian axis) and pressure


     negative rho (up, down):  2.091E-05 0.000E+00
          total   stress  (Ry/bohr**3)                   (kbar)     P=       -6.74
  -0.00005243  -0.00000032  -0.00000080           -7.71       -0.05       -0.12
  -0.00000032  -0.00005280   0.00000046           -0.05       -7.77        0.07
  -0.00000080   0.00000046  -0.00003220           -0.12        0.07       -4.74

     Energy error            =      1.5E-05 Ry
     Gradient error          =      7.8E-04 Ry/Bohr

     bfgs converged in  40 scf cycles and  39 bfgs steps
     (criteria: energy <  1.0E-04 Ry, force <  1.0E-03 Ry/Bohr)

     End of BFGS Geometry Optimization

     Final energy             =    -312.3419251027 Ry

     File ./LiAg_mp-2426_111_bridge_0/LiAg_mp-2426_111_bridge_0.bfgs deleted, as requested
Begin final coordinates

ATOMIC_POSITIONS (angstrom)
Ag            1.2706174141        0.5412684401       14.4639477546
Ag            3.4728790838        1.8194989545       12.8271142793
Ag            5.6710638247        3.1000817750       11.1832800521
Li            5.6870447611        3.0908538962       13.9006559939
Li            1.2538169957        0.5509687905       11.7424621679
Li            3.4574036665        1.8284324620       10.0436122852
Li            3.4764331791        1.8174455310       15.6051480722
End final coordinates



     Writing all to output data dir ./LiAg_mp-2426_111_bridge_0/LiAg_mp-2426_111_bridge_0.save/

     init_run     :      5.82s CPU      6.37s WALL (       1 calls)
     electrons    :     84.85s CPU    102.53s WALL (      40 calls)
     update_pot   :      9.12s CPU      9.78s WALL (      39 calls)
     forces       :      7.25s CPU      8.22s WALL (      40 calls)
     force_dftd3  :      0.30s CPU      0.53s WALL (      40 calls)
     stress       :     20.81s CPU     21.62s WALL (      40 calls)
     stres_dftd3  :      0.28s CPU      0.46s WALL (      40 calls)

     Called by init_run:
     wfcinit      :      0.24s CPU      0.50s WALL (       1 calls)
     potinit      :      0.89s CPU      0.90s WALL (       1 calls)
     hinit0       :      4.56s CPU      4.80s WALL (       1 calls)

     Called by electrons:
     c_bands      :     66.89s CPU     76.74s WALL (     300 calls)
     sum_band     :     11.49s CPU     13.59s WALL (     300 calls)
     v_of_rho     :      3.13s CPU      4.24s WALL (     323 calls)
     newd         :      1.78s CPU      1.91s WALL (     323 calls)
     mix_rho      :      0.37s CPU      0.39s WALL (     300 calls)
     energy_dftd3 :      0.06s CPU      0.06s WALL (      40 calls)

     Called by c_bands:
     init_us_2    :      0.55s CPU      0.61s WALL (    6129 calls)
     init_us_2:cp :      0.54s CPU      0.60s WALL (    6129 calls)
     cegterg      :     62.16s CPU     67.07s WALL (    2702 calls)

     Called by *egterg:
     cdiaghg      :     12.50s CPU     12.77s WALL (   12154 calls)
     h_psi        :     42.01s CPU     46.06s WALL (   12669 calls)
     s_psi        :      1.30s CPU      1.38s WALL (   12669 calls)
     g_psi        :      0.16s CPU      0.16s WALL (    9958 calls)

     Called by h_psi:
     h_psi:calbec :      3.10s CPU      3.94s WALL (   12669 calls)
     vloc_psi     :     37.48s CPU     40.60s WALL (   12669 calls)
     add_vuspsi   :      1.30s CPU      1.40s WALL (   12669 calls)

     General routines
     calbec       :      4.88s CPU      5.96s WALL (   17169 calls)
     fft          :      8.75s CPU     10.58s WALL (    5175 calls)
     ffts         :      1.04s CPU      1.64s WALL (     623 calls)
     fftw         :     39.29s CPU     42.57s WALL (  513674 calls)
     interpolate  :      1.05s CPU      1.41s WALL (     323 calls)

     Parallel routines

     PWSCF        :   2m 8.97s CPU   2m31.39s WALL


   This run was terminated on:   7:30:33   6Aug2025            

=------------------------------------------------------------------------------=
   JOB DONE.
=------------------------------------------------------------------------------=
