
     Program PWSCF v.7.2 starts on  6Aug2025 at  7:21: 4 

     This program is part of the open-source Quantum ESPRESSO suite
     for quantum simulation of materials; please cite
         "P. Giannozzi et al., J. Phys.:Condens. Matter 21 395502 (2009);
         "P. Giannozzi et al., J. Phys.:Condens. Matter 29 465901 (2017);
         "P. Giannozzi et al., J. Chem. Phys. 152 154105 (2020);
          URL http://www.quantum-espresso.org", 
     in publications or presentations arising from this work. More details at
     http://www.quantum-espresso.org/quote

     Parallel version (MPI & OpenMP), running on     256 processor cores
     Number of MPI processes:               256
     Threads/MPI process:                     1

     MPI processes distributed on     4 nodes
     241122 MiB available memory on the printing compute node when the environment starts

     Reading input from LiAg_mp-2426_100_ontop_0.in

     Current dimensions of program PWSCF are:
     Max number of different atomic species (ntypx) = 10
     Max number of k-points (npk) =  40000
     Max angular momentum in pseudopotentials (lmaxx) =  4
     Message from routine iosys:
     restart disabled: needed files not found
     Message from routine find_sym:
     Not a group! Trying with lower acceptance parameter...
     Message from routine find_sym:
     Still not a group! symmetry disabled

     K-points division:     npool     =       4
     R & G space division:  proc/nbgrp/npool/nimage =      64
     Subspace diagonalization in iterative solution of the eigenvalue problem:
     a serial algorithm will be used


     Parallelization info
     --------------------
     sticks:   dense  smooth     PW     G-vecs:    dense   smooth      PW
     Min          21       9      2                 5367     1557     224
     Max          22      10      3                 5430     1610     289
     Sum        1373     609    185               345099   100593   16881

     Using Slab Decomposition



     bravais-lattice index     =            0
     lattice parameter (alat)  =       5.9011  a.u.
     unit-cell volume          =    1829.8696 (a.u.)^3
     number of atoms/cell      =            7
     number of atomic types    =            2
     number of electrons       =        45.00
     number of Kohn-Sham states=           28
     kinetic-energy cutoff     =      55.0000  Ry
     charge density cutoff     =     500.0000  Ry
     scf convergence threshold =      1.0E-06
     mixing beta               =       0.3000
     number of iterations used =            8  plain     mixing
     energy convergence thresh.=      1.0E-04
     force convergence thresh. =      1.0E-03
     Exchange-correlation= PBE
                           (   1   4   3   4   0   0   0)
     nstep                     =          500


     celldm(1)=   5.901124  celldm(2)=   0.000000  celldm(3)=   0.000000
     celldm(4)=   0.000000  celldm(5)=   0.000000  celldm(6)=   0.000000

     crystal axes: (cart. coord. in units of alat)
               a(1) = (   1.000000   0.000000   0.000000 )  
               a(2) = (   0.000000   1.000000   0.000000 )  
               a(3) = (   0.000000   0.000000   8.904631 )  

     reciprocal axes: (cart. coord. in units 2 pi/alat)
               b(1) = (  1.000000 -0.000000  0.000000 )  
               b(2) = (  0.000000  1.000000  0.000000 )  
               b(3) = ( -0.000000 -0.000000  0.112301 )  


     PseudoPot. # 1 for Ag read from file:
     /home/ecastro/trabajo_final/pseudos/Ag.pbe-n-rrkjus_psl.1.0.0.UPF
     MD5 check sum: 81cdf87bacf708300839c66ee23ce017
     Pseudo is Ultrasoft + core correction, Zval = 11.0
     Generated using &quot;atomic&quot; code by A. Dal Corso  v.6.2.2
     Using radial grid of 1237 points,  6 beta functions with: 
                l(1) =   0
                l(2) =   0
                l(3) =   1
                l(4) =   1
                l(5) =   2
                l(6) =   2
     Q(r) pseudized with 0 coefficients 


     PseudoPot. # 2 for Li read from file:
     /home/ecastro/trabajo_final/pseudos/Li.pbe-s-rrkjus_psl.1.0.0.UPF
     MD5 check sum: 9f98d2529904d60b716d33989e9bc179
     Pseudo is Ultrasoft, Zval =  3.0
     Generated using &quot;atomic&quot; code by A. Dal Corso  v.6.3MaX
     Using radial grid of 1017 points,  4 beta functions with: 
                l(1) =   0
                l(2) =   0
                l(3) =   1
                l(4) =   1
     Q(r) pseudized with 0 coefficients 


     atomic species   valence    mass     pseudopotential
        Ag            11.00   107.86820     Ag( 1.00)
        Li             3.00     6.94100     Li( 1.00)

     No symmetry found



   Cartesian axes

     site n.     atom                  positions (alat units)
         1           Ag  tau(   1) = (   0.2499980   0.2499997   5.6981983  )
         2           Ag  tau(   2) = (   0.2500000   0.2500000   4.7023156  )
         3           Ag  tau(   3) = (   0.2500000   0.2500000   3.7023156  )
         4           Li  tau(   4) = (   0.7499992   0.7500002   5.2089093  )
         5           Li  tau(   5) = (   0.7500000   0.7500000   4.2023156  )
         6           Li  tau(   6) = (   0.7500000   0.7500000   3.2023156  )
         7           Li  tau(   7) = (   0.2499980   0.2499997   6.3386614  )

     --------------------------------------------
     DFT-D3 Dispersion Correction (no 3-body):
     --------------------------------------------
       Reference C6 values for interpolation: 

         atom   Coordination number   C6
         Li         0.000          2326.89
         Li         0.987           170.64
         Ag         0.000           853.49
         Ag         0.968           537.23

       Values used:

         atom   Coordination number  R0_AB[au]  C6      C8
         Ag         7.323            3.147    537.23  47741.54
         Ag        10.131            3.147    537.23  47741.54
         Ag         9.669            3.147    537.23  47741.54
         Li        10.640            3.303    170.64  12899.87
         Li        11.180            3.303    170.64  12899.87
         Li         6.833            3.303    170.64  12899.87
         Li         3.879            3.303    170.64  12899.87

         Molecular C6 ( Ry / a.u.^6 ) =     14508.77


     number of k points=    34  Methfessel-Paxton smearing, width (Ry)=  0.0300
                       cart. coord. in units 2pi/alat
        k(    1) = (   0.0000000   0.0000000   0.0000000), wk =   0.0312500
        k(    2) = (   0.0000000   0.1250000   0.0000000), wk =   0.0625000
        k(    3) = (   0.0000000   0.2500000   0.0000000), wk =   0.0625000
        k(    4) = (   0.0000000   0.3750000   0.0000000), wk =   0.0625000
        k(    5) = (   0.0000000  -0.5000000   0.0000000), wk =   0.0312500
        k(    6) = (   0.1250000  -0.0000000   0.0000000), wk =   0.0625000
        k(    7) = (   0.1250000   0.1250000   0.0000000), wk =   0.0625000
        k(    8) = (   0.1250000   0.2500000   0.0000000), wk =   0.0625000
        k(    9) = (   0.1250000   0.3750000   0.0000000), wk =   0.0625000
        k(   10) = (   0.1250000  -0.5000000   0.0000000), wk =   0.0625000
        k(   11) = (   0.1250000  -0.3750000   0.0000000), wk =   0.0625000
        k(   12) = (   0.1250000  -0.2500000   0.0000000), wk =   0.0625000
        k(   13) = (   0.1250000  -0.1250000   0.0000000), wk =   0.0625000
        k(   14) = (   0.2500000  -0.0000000   0.0000000), wk =   0.0625000
        k(   15) = (   0.2500000   0.1250000   0.0000000), wk =   0.0625000
        k(   16) = (   0.2500000   0.2500000   0.0000000), wk =   0.0625000
        k(   17) = (   0.2500000   0.3750000   0.0000000), wk =   0.0625000
        k(   18) = (   0.2500000  -0.5000000   0.0000000), wk =   0.0625000
        k(   19) = (   0.2500000  -0.3750000   0.0000000), wk =   0.0625000
        k(   20) = (   0.2500000  -0.2500000   0.0000000), wk =   0.0625000
        k(   21) = (   0.2500000  -0.1250000   0.0000000), wk =   0.0625000
        k(   22) = (   0.3750000  -0.0000000   0.0000000), wk =   0.0625000
        k(   23) = (   0.3750000   0.1250000   0.0000000), wk =   0.0625000
        k(   24) = (   0.3750000   0.2500000   0.0000000), wk =   0.0625000
        k(   25) = (   0.3750000   0.3750000   0.0000000), wk =   0.0625000
        k(   26) = (   0.3750000  -0.5000000   0.0000000), wk =   0.0625000
        k(   27) = (   0.3750000  -0.3750000   0.0000000), wk =   0.0625000
        k(   28) = (   0.3750000  -0.2500000   0.0000000), wk =   0.0625000
        k(   29) = (   0.3750000  -0.1250000   0.0000000), wk =   0.0625000
        k(   30) = (  -0.5000000   0.0000000   0.0000000), wk =   0.0312500
        k(   31) = (  -0.5000000   0.1250000   0.0000000), wk =   0.0625000
        k(   32) = (  -0.5000000   0.2500000   0.0000000), wk =   0.0625000
        k(   33) = (  -0.5000000   0.3750000   0.0000000), wk =   0.0625000
        k(   34) = (  -0.5000000  -0.5000000   0.0000000), wk =   0.0312500

     Dense  grid:   345099 G-vectors     FFT dimensions: (  45,  45, 375)

     Smooth grid:   100593 G-vectors     FFT dimensions: (  27,  27, 250)

     Estimated max dynamical RAM per process >      12.05 MB

     Estimated total dynamical RAM >       2.77 GB
     Cannot read rho : file not found

     Initial potential from superposition of free atoms

     starting charge      44.9804, renormalised to      45.0000

     negative rho (up, down):  3.296E-05 0.000E+00
     Message from routine qexsd_readschema :
     xml data file ./LiAg_mp-2426_100_ontop_0/LiAg_mp-2426_100_ontop_0.save/data-file
     Cannot read wfcs: file not found
     Starting wfcs are   47 randomized atomic wfcs

     total cpu time spent up to now is        2.3 secs

     per-process dynamical memory:   170.8 Mb

     Self-consistent Calculation

     iteration #  1     ecut=    55.00 Ry     beta= 0.30
     Davidson diagonalization with overlap
     c_bands:  1 eigenvalues not converged
     ethr =  1.00E-05,  avg # of iterations = 15.2

     negative rho (up, down):  2.733E-05 0.000E+00

     total cpu time spent up to now is        3.3 secs

     total energy              =    -312.07858135 Ry
     estimated scf accuracy    <       0.76040521 Ry

     iteration #  2     ecut=    55.00 Ry     beta= 0.30
     Davidson diagonalization with overlap
     ethr =  1.69E-03,  avg # of iterations =  6.5

     negative rho (up, down):  8.954E-05 0.000E+00

     total cpu time spent up to now is        3.9 secs

     total energy              =    -311.42000060 Ry
     estimated scf accuracy    <      17.42244299 Ry

     iteration #  3     ecut=    55.00 Ry     beta= 0.30
     Davidson diagonalization with overlap
     ethr =  1.69E-03,  avg # of iterations =  5.2

     negative rho (up, down):  1.043E-04 0.000E+00

     total cpu time spent up to now is        4.5 secs

     total energy              =    -312.13047236 Ry
     estimated scf accuracy    <       6.28122627 Ry

     iteration #  4     ecut=    55.00 Ry     beta= 0.30
     Davidson diagonalization with overlap
     ethr =  1.69E-03,  avg # of iterations =  2.1

     negative rho (up, down):  5.070E-05 0.000E+00

     total cpu time spent up to now is        5.1 secs

     total energy              =    -312.32631605 Ry
     estimated scf accuracy    <       0.16562255 Ry

     iteration #  5     ecut=    55.00 Ry     beta= 0.30
     Davidson diagonalization with overlap
     ethr =  3.68E-04,  avg # of iterations =  2.7

     negative rho (up, down):  2.817E-05 0.000E+00

     total cpu time spent up to now is        5.3 secs

     total energy              =    -312.33241407 Ry
     estimated scf accuracy    <       0.01546321 Ry

     iteration #  6     ecut=    55.00 Ry     beta= 0.30
     Davidson diagonalization with overlap
     ethr =  3.44E-05,  avg # of iterations =  7.0

     negative rho (up, down):  1.463E-05 0.000E+00

     total cpu time spent up to now is        5.7 secs

     total energy              =    -312.33365754 Ry
     estimated scf accuracy    <       0.00130070 Ry

     iteration #  7     ecut=    55.00 Ry     beta= 0.30
     Davidson diagonalization with overlap
     ethr =  2.89E-06,  avg # of iterations =  4.4

     negative rho (up, down):  2.325E-05 0.000E+00

     total cpu time spent up to now is        5.9 secs

     total energy              =    -312.33381215 Ry
     estimated scf accuracy    <       0.00026129 Ry

     iteration #  8     ecut=    55.00 Ry     beta= 0.30
     Davidson diagonalization with overlap
     ethr =  5.81E-07,  avg # of iterations =  4.2

     negative rho (up, down):  1.790E-05 0.000E+00

     total cpu time spent up to now is        6.2 secs

     total energy              =    -312.33382492 Ry
     estimated scf accuracy    <       0.00009712 Ry

     iteration #  9     ecut=    55.00 Ry     beta= 0.30
     Davidson diagonalization with overlap
     ethr =  2.16E-07,  avg # of iterations =  1.6

     negative rho (up, down):  1.506E-05 0.000E+00

     total cpu time spent up to now is        6.3 secs

     total energy              =    -312.33383700 Ry
     estimated scf accuracy    <       0.00001632 Ry

     iteration # 10     ecut=    55.00 Ry     beta= 0.30
     Davidson diagonalization with overlap
     ethr =  3.63E-08,  avg # of iterations =  3.0

     negative rho (up, down):  1.161E-05 0.000E+00

     total cpu time spent up to now is        6.5 secs

     total energy              =    -312.33383917 Ry
     estimated scf accuracy    <       0.00000131 Ry

     iteration # 11     ecut=    55.00 Ry     beta= 0.30
     Davidson diagonalization with overlap
     ethr =  2.92E-09,  avg # of iterations =  4.4

     negative rho (up, down):  7.771E-06 0.000E+00

     total cpu time spent up to now is        6.7 secs

     End of self-consistent calculation

          k = 0.0000 0.0000 0.0000 ( 12493 PWs)   bands (ev):

   -46.3733 -45.5727 -44.6689 -44.6665  -4.9148  -4.5737  -4.4677  -4.3189
    -4.3006  -4.2536  -4.1828  -3.6313  -3.4724  -3.4723  -3.2392  -3.2392
    -2.9710  -2.9710  -2.8369  -2.8198  -2.7978  -2.1902  -0.4813   0.5203
     1.6810   3.1898   4.1495   4.1691

          k = 0.0000 0.1250 0.0000 ( 12528 PWs)   bands (ev):

   -46.3726 -45.5720 -44.6682 -44.6657  -4.7128  -4.4004  -4.3735  -4.2343
    -4.1943  -4.1170  -4.0469  -3.6592  -3.5708  -3.4572  -3.3559  -3.2247
    -3.0483  -2.9630  -2.9217  -2.8972  -2.8729  -2.0437  -0.2382   0.7152
     1.8989   3.4046   4.3703   4.4032

          k = 0.0000 0.2500 0.0000 ( 12550 PWs)   bands (ev):

   -46.3710 -45.5702 -44.6663 -44.6636  -4.4505  -4.2964  -4.2183  -4.1232
    -3.9968  -3.7853  -3.7147  -3.4789  -3.4380  -3.4207  -3.3797  -3.1914
    -3.1181  -3.0838  -3.0468  -2.9349  -2.8679  -1.6070   0.3597   1.2758
     2.4564   3.7965   4.5122   4.9591

          k = 0.0000 0.3750 0.0000 ( 12594 PWs)   bands (ev):

   -46.3694 -45.5685 -44.6643 -44.6618  -4.3303  -4.2773  -4.2277  -4.1172
    -4.0276  -3.9802  -3.5973  -3.5316  -3.3842  -3.3105  -3.2577  -3.2135
    -3.1479  -2.9118  -2.8840  -2.0868  -1.6178  -0.6418   0.9992   1.8052
     2.0575   2.6997   3.3626   3.8842

          k = 0.0000-0.5000 0.0000 ( 12618 PWs)   bands (ev):

   -46.3688 -45.5678 -44.6635 -44.6611  -4.3822  -4.2866  -4.2028  -4.0774
    -4.0773  -3.9832  -3.6431  -3.5180  -3.3856  -3.3672  -3.3288  -3.2789
    -3.1337  -2.9018  -2.6962  -0.4112  -0.1160  -0.0314   0.3239   0.8899
     0.9155   2.2489   3.3727   4.1963

          k = 0.1250-0.0000 0.0000 ( 12528 PWs)   bands (ev):

   -46.3726 -45.5720 -44.6682 -44.6657  -4.7128  -4.4004  -4.3735  -4.2343
    -4.1943  -4.1170  -4.0469  -3.6592  -3.5708  -3.4572  -3.3559  -3.2247
    -3.0483  -2.9630  -2.9217  -2.8972  -2.8729  -2.0437  -0.2382   0.7152
     1.8989   3.4046   4.3703   4.4031

          k = 0.1250 0.1250 0.0000 ( 12540 PWs)   bands (ev):

   -46.3720 -45.5713 -44.6674 -44.6648  -4.5002  -4.2651  -4.1692  -4.1381
    -4.0691  -4.0606  -3.9906  -3.6790  -3.5873  -3.5387  -3.3449  -3.3307
    -3.0481  -3.0225  -3.0070  -2.9626  -2.9489  -1.8805   0.0117   0.9184
     2.1300   3.6358   4.5958   4.6420

          k = 0.1250 0.2500 0.0000 ( 12575 PWs)   bands (ev):

   -46.3704 -45.5695 -44.6655 -44.6630  -4.3114  -4.1281  -4.0221  -3.9870
    -3.9369  -3.7738  -3.7039  -3.5717  -3.5024  -3.4710  -3.3929  -3.3219
    -3.2204  -3.1223  -3.0996  -3.0393  -2.6273  -1.3879   0.6361   1.5013
     2.7277   4.0861   4.6893   5.1883

          k = 0.1250 0.3750 0.0000 ( 12609 PWs)   bands (ev):

   -46.3688 -45.5678 -44.6635 -44.6611  -4.2708  -4.2153  -4.0475  -3.9761
    -3.9295  -3.8369  -3.5994  -3.5496  -3.4921  -3.4804  -3.4311  -3.3916
    -3.2816  -3.0062  -2.8380  -1.9203  -1.3914  -0.3601   1.3266   2.0704
     2.2979   2.9425   3.5954   4.0941

          k = 0.1250-0.5000 0.0000 ( 12650 PWs)   bands (ev):

   -46.3682 -45.5672 -44.6629 -44.6603  -4.3706  -4.1849  -4.0651  -4.0087
    -3.8926  -3.7898  -3.6291  -3.5722  -3.5654  -3.5170  -3.4660  -3.4425
    -3.2621  -2.9892  -2.6659  -0.3141   0.1446   0.1534   0.6397   1.1987
     1.2840   2.5194   3.6169   4.3731

          k = 0.1250-0.3750 0.0000 ( 12609 PWs)   bands (ev):

   -46.3688 -45.5678 -44.6635 -44.6611  -4.2708  -4.2153  -4.0475  -3.9761
    -3.9295  -3.8369  -3.5994  -3.5496  -3.4921  -3.4804  -3.4311  -3.3916
    -3.2816  -3.0062  -2.8380  -1.9203  -1.3914  -0.3601   1.3266   2.0704
     2.2979   2.9425   3.5954   4.0940

          k = 0.1250-0.2500 0.0000 ( 12575 PWs)   bands (ev):

   -46.3704 -45.5695 -44.6655 -44.6630  -4.3114  -4.1281  -4.0221  -3.9870
    -3.9369  -3.7738  -3.7039  -3.5717  -3.5024  -3.4710  -3.3929  -3.3219
    -3.2204  -3.1223  -3.0996  -3.0393  -2.6273  -1.3879   0.6361   1.5013
     2.7277   4.0861   4.6893   5.1887

          k = 0.1250-0.1250 0.0000 ( 12540 PWs)   bands (ev):

   -46.3720 -45.5713 -44.6674 -44.6648  -4.5002  -4.2651  -4.1692  -4.1381
    -4.0691  -4.0606  -3.9906  -3.6790  -3.5873  -3.5387  -3.3449  -3.3307
    -3.0481  -3.0225  -3.0070  -2.9626  -2.9489  -1.8805   0.0117   0.9184
     2.1300   3.6358   4.5958   4.6421

          k = 0.2500-0.0000 0.0000 ( 12550 PWs)   bands (ev):

   -46.3710 -45.5702 -44.6663 -44.6636  -4.4505  -4.2964  -4.2183  -4.1232
    -3.9968  -3.7853  -3.7147  -3.4789  -3.4380  -3.4207  -3.3797  -3.1914
    -3.1181  -3.0838  -3.0468  -2.9349  -2.8679  -1.6070   0.3597   1.2758
     2.4564   3.7965   4.5122   4.9584

          k = 0.2500 0.1250 0.0000 ( 12575 PWs)   bands (ev):

   -46.3704 -45.5695 -44.6655 -44.6630  -4.3114  -4.1281  -4.0221  -3.9870
    -3.9369  -3.7738  -3.7039  -3.5717  -3.5024  -3.4710  -3.3929  -3.3219
    -3.2204  -3.1223  -3.0996  -3.0393  -2.6273  -1.3879   0.6361   1.5013
     2.7277   4.0861   4.6893   5.1888

          k = 0.2500 0.2500 0.0000 ( 12610 PWs)   bands (ev):

   -46.3688 -45.5679 -44.6636 -44.6612  -4.2100  -3.9933  -3.9053  -3.8054
    -3.7364  -3.6963  -3.6546  -3.6152  -3.5492  -3.5197  -3.5025  -3.4116
    -3.3138  -3.2161  -3.1268  -2.7091  -2.0054  -0.7548   1.3358   2.1480
     3.4549   4.3760   4.9054   5.1843

          k = 0.2500 0.3750 0.0000 ( 12622 PWs)   bands (ev):

   -46.3672 -45.5662 -44.6616 -44.6593  -4.2434  -4.1205  -3.9493  -3.9155
    -3.8700  -3.8341  -3.7605  -3.6824  -3.5648  -3.4791  -3.3580  -3.3447
    -3.2511  -3.1256  -2.7876  -1.4637  -0.7726   0.3870   2.1513   2.5901
     2.9947   3.5158   4.2406   4.6730

          k = 0.2500-0.5000 0.0000 ( 12660 PWs)   bands (ev):

   -46.3667 -45.5655 -44.6609 -44.6586  -4.3443  -4.0879  -4.0382  -3.9455
    -3.9143  -3.9001  -3.8305  -3.6742  -3.5765  -3.5378  -3.3168  -3.3079
    -3.2266  -3.0456  -2.6130   0.0204   0.6698   0.7556   1.3853   1.9299
     2.2338   3.3031   4.3105   4.8838

          k = 0.2500-0.3750 0.0000 ( 12622 PWs)   bands (ev):

   -46.3672 -45.5662 -44.6616 -44.6593  -4.2434  -4.1205  -3.9493  -3.9155
    -3.8700  -3.8341  -3.7605  -3.6824  -3.5648  -3.4791  -3.3580  -3.3447
    -3.2511  -3.1256  -2.7876  -1.4637  -0.7726   0.3870   2.1513   2.5901
     2.9947   3.5158   4.2406   4.6730

          k = 0.2500-0.2500 0.0000 ( 12610 PWs)   bands (ev):

   -46.3688 -45.5679 -44.6636 -44.6612  -4.2100  -3.9933  -3.9053  -3.8054
    -3.7364  -3.6963  -3.6546  -3.6152  -3.5492  -3.5197  -3.5025  -3.4116
    -3.3138  -3.2161  -3.1268  -2.7091  -2.0054  -0.7548   1.3358   2.1480
     3.4549   4.3760   4.9054   5.1843

          k = 0.2500-0.1250 0.0000 ( 12575 PWs)   bands (ev):

   -46.3704 -45.5695 -44.6655 -44.6630  -4.3114  -4.1281  -4.0221  -3.9870
    -3.9369  -3.7738  -3.7039  -3.5717  -3.5024  -3.4710  -3.3929  -3.3219
    -3.2204  -3.1223  -3.0996  -3.0393  -2.6273  -1.3879   0.6361   1.5013
     2.7277   4.0861   4.6893   5.1887

          k = 0.3750-0.0000 0.0000 ( 12594 PWs)   bands (ev):

   -46.3694 -45.5685 -44.6643 -44.6618  -4.3303  -4.2773  -4.2277  -4.1172
    -4.0276  -3.9802  -3.5973  -3.5316  -3.3842  -3.3105  -3.2577  -3.2135
    -3.1479  -2.9118  -2.8840  -2.0868  -1.6178  -0.6418   0.9992   1.8052
     2.0575   2.6997   3.3626   3.8842

          k = 0.3750 0.1250 0.0000 ( 12609 PWs)   bands (ev):

   -46.3688 -45.5678 -44.6635 -44.6611  -4.2708  -4.2153  -4.0475  -3.9761
    -3.9295  -3.8369  -3.5994  -3.5496  -3.4921  -3.4804  -3.4311  -3.3916
    -3.2816  -3.0062  -2.8380  -1.9203  -1.3914  -0.3601   1.3266   2.0704
     2.2979   2.9425   3.5954   4.0941

          k = 0.3750 0.2500 0.0000 ( 12622 PWs)   bands (ev):

   -46.3672 -45.5662 -44.6616 -44.6593  -4.2434  -4.1205  -3.9493  -3.9155
    -3.8700  -3.8341  -3.7605  -3.6824  -3.5648  -3.4791  -3.3580  -3.3447
    -3.2511  -3.1256  -2.7876  -1.4637  -0.7726   0.3870   2.1513   2.5901
     2.9947   3.5158   4.2406   4.6730

          k = 0.3750 0.3750 0.0000 ( 12670 PWs)   bands (ev):

   -46.3658 -45.5646 -44.6599 -44.6575  -4.2358  -4.1891  -4.1545  -4.1303
    -4.0406  -4.0166  -3.9053  -3.8842  -3.5069  -3.4423  -3.4095  -2.8265
    -2.7678  -2.7662  -2.7115  -0.5091   0.3183   1.5618   2.4293   3.3241
     3.3711   4.2383   4.6776   5.4627

          k = 0.3750-0.5000 0.0000 ( 12656 PWs)   bands (ev):

   -46.3651 -45.5639 -44.6591 -44.6567  -4.3203  -4.2591  -4.2400  -4.2015
    -4.1264  -3.9968  -3.9900  -3.8800  -3.5326  -3.4604  -3.3917  -2.7446
    -2.6434  -2.5883  -2.4967   0.7598   1.3287   1.6294   2.2068   3.0043
     3.3437   4.3865   5.2899   5.3306

          k = 0.3750-0.3750 0.0000 ( 12670 PWs)   bands (ev):

   -46.3658 -45.5646 -44.6599 -44.6575  -4.2358  -4.1891  -4.1545  -4.1303
    -4.0406  -4.0166  -3.9053  -3.8842  -3.5069  -3.4423  -3.4095  -2.8265
    -2.7678  -2.7662  -2.7115  -0.5091   0.3183   1.5618   2.4293   3.3241
     3.3711   4.2383   4.6776   5.4627

          k = 0.3750-0.2500 0.0000 ( 12622 PWs)   bands (ev):

   -46.3672 -45.5662 -44.6616 -44.6593  -4.2434  -4.1205  -3.9493  -3.9155
    -3.8700  -3.8341  -3.7605  -3.6824  -3.5648  -3.4791  -3.3580  -3.3447
    -3.2511  -3.1256  -2.7876  -1.4637  -0.7726   0.3870   2.1513   2.5901
     2.9947   3.5158   4.2406   4.6730

          k = 0.3750-0.1250 0.0000 ( 12609 PWs)   bands (ev):

   -46.3688 -45.5678 -44.6635 -44.6611  -4.2708  -4.2153  -4.0475  -3.9761
    -3.9295  -3.8369  -3.5994  -3.5496  -3.4921  -3.4804  -3.4311  -3.3916
    -3.2816  -3.0062  -2.8380  -1.9203  -1.3914  -0.3601   1.3266   2.0704
     2.2979   2.9425   3.5954   4.0941

          k =-0.5000 0.0000 0.0000 ( 12618 PWs)   bands (ev):

   -46.3688 -45.5678 -44.6635 -44.6611  -4.3822  -4.2866  -4.2028  -4.0774
    -4.0773  -3.9832  -3.6431  -3.5180  -3.3856  -3.3672  -3.3288  -3.2789
    -3.1337  -2.9018  -2.6962  -0.4112  -0.1160  -0.0314   0.3240   0.8899
     0.9155   2.2489   3.3727   4.1963

          k =-0.5000 0.1250 0.0000 ( 12650 PWs)   bands (ev):

   -46.3682 -45.5672 -44.6629 -44.6603  -4.3706  -4.1849  -4.0651  -4.0087
    -3.8926  -3.7898  -3.6291  -3.5722  -3.5654  -3.5170  -3.4660  -3.4425
    -3.2621  -2.9892  -2.6659  -0.3141   0.1446   0.1534   0.6397   1.1987
     1.2840   2.5194   3.6169   4.3731

          k =-0.5000 0.2500 0.0000 ( 12660 PWs)   bands (ev):

   -46.3667 -45.5655 -44.6609 -44.6586  -4.3443  -4.0879  -4.0382  -3.9455
    -3.9143  -3.9001  -3.8305  -3.6742  -3.5765  -3.5378  -3.3168  -3.3079
    -3.2266  -3.0456  -2.6130   0.0204   0.6698   0.7556   1.3853   1.9299
     2.2338   3.3031   4.3106   4.8838

          k =-0.5000 0.3750 0.0000 ( 12656 PWs)   bands (ev):

   -46.3651 -45.5639 -44.6591 -44.6567  -4.3203  -4.2591  -4.2400  -4.2015
    -4.1264  -3.9968  -3.9900  -3.8800  -3.5326  -3.4604  -3.3917  -2.7446
    -2.6434  -2.5883  -2.4967   0.7598   1.3287   1.6294   2.2068   3.0043
     3.3437   4.3865   5.2899   5.3306

          k =-0.5000-0.5000 0.0000 ( 12564 PWs)   bands (ev):

   -46.3642 -45.5629 -44.6583 -44.6555  -4.3744  -4.3596  -4.3097  -4.3097
    -4.2345  -3.9846  -3.9846  -3.9424  -3.5137  -3.5137  -3.3752  -2.6506
    -2.3882  -2.3351  -2.3196   1.5628   1.5628   2.6052   2.6052   3.8441
     4.0045   4.0045   4.3920   5.5601

     the Fermi energy is     1.1145 ev

!    total energy              =    -312.33383939 Ry
     estimated scf accuracy    <       0.00000034 Ry
     smearing contrib. (-TS)   =       0.00067328 Ry
     internal energy E=F+TS    =    -312.33451267 Ry

     The total energy is F=E-TS. E is the sum of the following terms:
     one-electron contribution =   -2698.92861271 Ry
     hartree contribution      =    1367.64865158 Ry
     xc contribution           =     -81.47826761 Ry
     ewald contribution        =    1100.53695995 Ry
     DFT-D3 Dispersion         =      -0.11324388 Ry

     convergence has been achieved in  11 iterations

     negative rho (up, down):  7.771E-06 0.000E+00

     Forces acting on atoms (cartesian axes, Ry/au):

     atom    1 type  1   force =     0.00000152    0.00000104   -0.09977460
     atom    2 type  1   force =    -0.00000002   -0.00000036   -0.00137217
     atom    3 type  1   force =     0.00000021   -0.00000016    0.00209649
     atom    4 type  2   force =    -0.00000035   -0.00000002   -0.00031521
     atom    5 type  2   force =    -0.00000057   -0.00000048    0.00110201
     atom    6 type  2   force =    -0.00000060   -0.00000003   -0.00045219
     atom    7 type  2   force =    -0.00000019    0.00000000    0.09871567
     The non-local contrib.  to forces
     atom    1 type  1   force =     0.00000060    0.00000027    0.19698558
     atom    2 type  1   force =     0.00000014   -0.00000005   -0.00390045
     atom    3 type  1   force =     0.00000066    0.00000028    0.02246786
     atom    4 type  2   force =    -0.00000469   -0.00000446    0.00068260
     atom    5 type  2   force =    -0.00000431   -0.00000442    0.00024312
     atom    6 type  2   force =    -0.00000789   -0.00000764   -0.05658639
     atom    7 type  2   force =     0.00001203    0.00001263    0.06133356
     The ionic contribution  to forces
     atom    1 type  1   force =     0.00000289    0.00000151   69.27475753
     atom    2 type  1   force =    -0.00000057    0.00000098    0.27563837
     atom    3 type  1   force =    -0.00000000    0.00000000  -71.03171407
     atom    4 type  2   force =    -0.00000238   -0.00000249    9.87636835
     atom    5 type  2   force =     0.00000004   -0.00000002   -9.58705340
     atom    6 type  2   force =     0.00000000   -0.00000000  -27.49732466
     atom    7 type  2   force =     0.00000003    0.00000001   28.68932788
     The local contribution  to forces
     atom    1 type  1   force =    -0.00000259   -0.00000432  -69.57558336
     atom    2 type  1   force =    -0.00000079   -0.00000047   -0.27207533
     atom    3 type  1   force =     0.00000043    0.00000095   71.00634301
     atom    4 type  2   force =     0.00000638    0.00000753   -9.87616350
     atom    5 type  2   force =     0.00000369    0.00000328    9.58681478
     atom    6 type  2   force =     0.00000724    0.00000825   27.55119530
     atom    7 type  2   force =    -0.00001248   -0.00001267  -28.65013140
     The core correction contribution to forces
     atom    1 type  1   force =    -0.00000009   -0.00000018    0.00999770
     atom    2 type  1   force =    -0.00000004    0.00000002   -0.00009708
     atom    3 type  1   force =    -0.00000001    0.00000005   -0.00016080
     atom    4 type  2   force =     0.00000000    0.00000000    0.00000000
     atom    5 type  2   force =     0.00000000    0.00000000    0.00000000
     atom    6 type  2   force =     0.00000000    0.00000000    0.00000000
     atom    7 type  2   force =     0.00000000    0.00000000    0.00000000
     The Hubbard contrib.    to forces
     atom    1 type  1   force =     0.00000000    0.00000000    0.00000000
     atom    2 type  1   force =     0.00000000    0.00000000    0.00000000
     atom    3 type  1   force =     0.00000000    0.00000000    0.00000000
     atom    4 type  2   force =     0.00000000    0.00000000    0.00000000
     atom    5 type  2   force =     0.00000000    0.00000000    0.00000000
     atom    6 type  2   force =     0.00000000    0.00000000    0.00000000
     atom    7 type  2   force =     0.00000000    0.00000000    0.00000000
     The SCF correction term to forces
     atom    1 type  1   force =     0.00000081    0.00000375   -0.00118223
     atom    2 type  1   force =     0.00000131   -0.00000083   -0.00069227
     atom    3 type  1   force =    -0.00000079   -0.00000144    0.00110965
     atom    4 type  2   force =     0.00000042   -0.00000061   -0.00018410
     atom    5 type  2   force =     0.00000010    0.00000067   -0.00013029
     atom    6 type  2   force =     0.00000013   -0.00000063    0.00008628
     atom    7 type  2   force =     0.00000031    0.00000003   -0.00036612

     DFT-D3 dispersion contribution to forces:
     atom    1 type  1   force =    -0.00000001   -0.00000000   -0.00474895
     atom    2 type  1   force =     0.00000001    0.00000000   -0.00024453
     atom    3 type  1   force =    -0.00000000    0.00000000    0.00405171
     atom    4 type  2   force =     0.00000000    0.00000000   -0.00101767
     atom    5 type  2   force =     0.00000000   -0.00000000    0.00122867
     atom    6 type  2   force =    -0.00000000    0.00000000    0.00217815
     atom    7 type  2   force =     0.00000000    0.00000000   -0.00144738

     Total force =     0.140384     Total SCF correction =     0.001817


     Computing stress (Cartesian axis) and pressure


     negative rho (up, down):  7.771E-06 0.000E+00
          total   stress  (Ry/bohr**3)                   (kbar)     P=       -4.48
  -0.00011667  -0.00000000   0.00000000          -17.16       -0.00        0.00
  -0.00000000  -0.00011667  -0.00000000           -0.00      -17.16       -0.00
   0.00000000  -0.00000000   0.00014197            0.00       -0.00       20.88


     BFGS Geometry Optimization
     Energy error            =      0.0E+00 Ry
     Gradient error          =      1.0E-01 Ry/Bohr

     number of scf cycles    =   1
     number of bfgs steps    =   0

     energy             new  =    -312.3338393886 Ry

     new trust radius        =       0.0997745990 bohr
     new conv_thr            =       0.0000010000 Ry


ATOMIC_POSITIONS (angstrom)
Ag            0.7806795681        0.7806848291       17.7411952545
Ag            0.7806850728        0.7806848939       14.6833843756
Ag            0.7806851914        0.7806849996       11.5624795775
Li            2.3420526665        2.3420557908       16.2659042594
Li            2.3420549472        2.3420549911       13.1233234884
Li            2.3420549304        2.3420552331        9.9997607118
Li            0.7806786623        0.7806842798       19.8462317797



     Writing config-only to output data dir ./LiAg_mp-2426_100_ontop_0/LiAg_mp-2426_100_ontop_0.save/
     NEW-OLD atomic charge density approx. for the potential

     negative rho (up, down):  1.080E-05 0.000E+00

     total cpu time spent up to now is        7.6 secs

     per-process dynamical memory:   198.8 Mb

     Self-consistent Calculation

     iteration #  1     ecut=    55.00 Ry     beta= 0.30
     Davidson diagonalization with overlap
     ethr =  1.00E-06,  avg # of iterations =  8.2

     negative rho (up, down):  9.528E-06 0.000E+00

     total cpu time spent up to now is        8.1 secs

     total energy              =    -312.34949569 Ry
     estimated scf accuracy    <       0.00137219 Ry

     iteration #  2     ecut=    55.00 Ry     beta= 0.30
     Davidson diagonalization with overlap
     ethr =  3.05E-06,  avg # of iterations =  5.5

     negative rho (up, down):  9.919E-06 0.000E+00

     total cpu time spent up to now is        8.4 secs

     total energy              =    -312.34833478 Ry
     estimated scf accuracy    <       0.04502749 Ry

     iteration #  3     ecut=    55.00 Ry     beta= 0.30
     Davidson diagonalization with overlap
     ethr =  3.05E-06,  avg # of iterations =  4.8

     negative rho (up, down):  1.020E-05 0.000E+00

     total cpu time spent up to now is        8.7 secs

     total energy              =    -312.34964908 Ry
     estimated scf accuracy    <       0.00363950 Ry

     iteration #  4     ecut=    55.00 Ry     beta= 0.30
     Davidson diagonalization with overlap
     ethr =  3.05E-06,  avg # of iterations =  2.1

     negative rho (up, down):  9.033E-06 0.000E+00

     total cpu time spent up to now is        8.9 secs

     total energy              =    -312.34984679 Ry
     estimated scf accuracy    <       0.00087624 Ry

     iteration #  5     ecut=    55.00 Ry     beta= 0.30
     Davidson diagonalization with overlap
     ethr =  1.95E-06,  avg # of iterations =  1.1

     negative rho (up, down):  8.149E-06 0.000E+00

     total cpu time spent up to now is        9.0 secs

     total energy              =    -312.34989553 Ry
     estimated scf accuracy    <       0.00001388 Ry

     iteration #  6     ecut=    55.00 Ry     beta= 0.30
     Davidson diagonalization with overlap
     ethr =  3.08E-08,  avg # of iterations =  2.6

     negative rho (up, down):  8.016E-06 0.000E+00

     total cpu time spent up to now is        9.2 secs

     total energy              =    -312.34989794 Ry
     estimated scf accuracy    <       0.00000355 Ry

     iteration #  7     ecut=    55.00 Ry     beta= 0.30
     Davidson diagonalization with overlap
     ethr =  7.88E-09,  avg # of iterations =  2.2

     negative rho (up, down):  7.766E-06 0.000E+00

     total cpu time spent up to now is        9.4 secs

     End of self-consistent calculation

          k = 0.0000 0.0000 0.0000 ( 12493 PWs)   bands (ev):

   -46.3343 -45.5796 -44.6701 -44.6467  -4.9284  -4.5766  -4.3953  -4.3185
    -4.3153  -4.2346  -4.1616  -3.6153  -3.4192  -3.4192  -3.2091  -3.2091
    -2.9580  -2.9580  -2.8371  -2.8105  -2.7674  -2.1811  -0.5013   0.5101
     1.6506   3.1945   4.1500   4.1795

          k = 0.0000 0.1250 0.0000 ( 12528 PWs)   bands (ev):

   -46.3337 -45.5789 -44.6693 -44.6459  -4.7265  -4.3990  -4.3251  -4.2259
    -4.1931  -4.1043  -4.0203  -3.6401  -3.5123  -3.4025  -3.3385  -3.1957
    -3.0317  -2.9504  -2.9234  -2.8886  -2.8410  -2.0301  -0.2612   0.7029
     1.8680   3.4042   4.3693   4.4126

          k = 0.0000 0.2500 0.0000 ( 12550 PWs)   bands (ev):

   -46.3320 -45.5772 -44.6673 -44.6439  -4.4601  -4.2572  -4.2200  -4.1055
    -3.9604  -3.7515  -3.6851  -3.4671  -3.4101  -3.3714  -3.3621  -3.1693
    -3.1177  -3.0758  -3.0133  -2.9241  -2.8547  -1.5872   0.3316   1.2559
     2.4251   3.7855   4.5076   4.9523

          k = 0.0000 0.3750 0.0000 ( 12594 PWs)   bands (ev):

   -46.3305 -45.5755 -44.6654 -44.6420  -4.3372  -4.2411  -4.1905  -4.1176
    -4.0095  -3.9386  -3.5733  -3.4954  -3.3236  -3.3141  -3.2521  -3.1780
    -3.1238  -2.9021  -2.8644  -2.0867  -1.6031  -0.6202   0.9817   1.7964
     2.0493   2.6530   3.3579   3.8762

          k = 0.0000-0.5000 0.0000 ( 12618 PWs)   bands (ev):

   -46.3298 -45.5748 -44.6646 -44.6412  -4.3449  -4.2945  -4.1644  -4.0780
    -4.0329  -3.9684  -3.6188  -3.4811  -3.3907  -3.3247  -3.3017  -3.2444
    -3.1104  -2.8926  -2.6708  -0.4164  -0.1014  -0.0307   0.3599   0.9079
     0.9128   2.2135   3.2323   4.1794

          k = 0.1250-0.0000 0.0000 ( 12528 PWs)   bands (ev):

   -46.3337 -45.5789 -44.6693 -44.6459  -4.7265  -4.3990  -4.3251  -4.2259
    -4.1931  -4.1043  -4.0203  -3.6401  -3.5123  -3.4025  -3.3385  -3.1957
    -3.0317  -2.9504  -2.9234  -2.8886  -2.8410  -2.0301  -0.2612   0.7029
     1.8680   3.4042   4.3693   4.4126

          k = 0.1250 0.1250 0.0000 ( 12540 PWs)   bands (ev):

   -46.3330 -45.5782 -44.6685 -44.6451  -4.5102  -4.2376  -4.1704  -4.1382
    -4.0511  -4.0280  -3.9693  -3.6589  -3.5402  -3.4671  -3.3270  -3.3096
    -3.0325  -3.0114  -3.0022  -2.9655  -2.9100  -1.8636  -0.0140   0.9040
     2.0989   3.6312   4.5937   4.6509

          k = 0.1250 0.2500 0.0000 ( 12575 PWs)   bands (ev):

   -46.3314 -45.5765 -44.6666 -44.6432  -4.3030  -4.1213  -4.0122  -3.9553
    -3.9101  -3.7439  -3.6789  -3.5214  -3.4889  -3.4486  -3.3712  -3.2908
    -3.1974  -3.1199  -3.0872  -3.0240  -2.6175  -1.3668   0.6053   1.4803
     2.6968   4.0740   4.6849   5.1814

          k = 0.1250 0.3750 0.0000 ( 12609 PWs)   bands (ev):

   -46.3298 -45.5748 -44.6647 -44.6413  -4.2366  -4.2025  -4.0425  -3.9345
    -3.9164  -3.8174  -3.5792  -3.5224  -3.4939  -3.4420  -3.4028  -3.3477
    -3.2586  -2.9879  -2.8207  -1.9211  -1.3794  -0.3386   1.3062   2.0641
     2.2859   2.9049   3.5890   4.0867

          k = 0.1250-0.5000 0.0000 ( 12650 PWs)   bands (ev):

   -46.3293 -45.5742 -44.6640 -44.6405  -4.3368  -4.1688  -4.0203  -4.0055
    -3.8808  -3.7723  -3.6047  -3.5770  -3.5411  -3.5193  -3.4234  -3.3683
    -3.2419  -2.9723  -2.6424  -0.3190   0.1449   0.1665   0.6745   1.1969
     1.3005   2.4876   3.4806   4.3525

          k = 0.1250-0.3750 0.0000 ( 12609 PWs)   bands (ev):

   -46.3298 -45.5748 -44.6647 -44.6413  -4.2366  -4.2025  -4.0425  -3.9345
    -3.9164  -3.8174  -3.5792  -3.5224  -3.4939  -3.4420  -3.4028  -3.3477
    -3.2586  -2.9879  -2.8207  -1.9211  -1.3794  -0.3386   1.3062   2.0641
     2.2859   2.9049   3.5890   4.0867

          k = 0.1250-0.2500 0.0000 ( 12575 PWs)   bands (ev):

   -46.3314 -45.5765 -44.6666 -44.6432  -4.3030  -4.1213  -4.0122  -3.9553
    -3.9101  -3.7439  -3.6789  -3.5214  -3.4889  -3.4486  -3.3712  -3.2908
    -3.1974  -3.1199  -3.0872  -3.0240  -2.6175  -1.3668   0.6053   1.4803
     2.6968   4.0740   4.6849   5.1815

          k = 0.1250-0.1250 0.0000 ( 12540 PWs)   bands (ev):

   -46.3330 -45.5782 -44.6685 -44.6451  -4.5102  -4.2376  -4.1704  -4.1382
    -4.0511  -4.0280  -3.9693  -3.6589  -3.5402  -3.4671  -3.3270  -3.3096
    -3.0325  -3.0114  -3.0022  -2.9655  -2.9100  -1.8636  -0.0140   0.9040
     2.0989   3.6312   4.5936   4.6509

          k = 0.2500-0.0000 0.0000 ( 12550 PWs)   bands (ev):

   -46.3320 -45.5772 -44.6673 -44.6439  -4.4601  -4.2572  -4.2200  -4.1055
    -3.9604  -3.7515  -3.6851  -3.4671  -3.4101  -3.3714  -3.3621  -3.1693
    -3.1177  -3.0758  -3.0133  -2.9241  -2.8547  -1.5872   0.3316   1.2559
     2.4251   3.7854   4.5072   4.9515

          k = 0.2500 0.1250 0.0000 ( 12575 PWs)   bands (ev):

   -46.3314 -45.5765 -44.6666 -44.6432  -4.3030  -4.1213  -4.0122  -3.9552
    -3.9101  -3.7439  -3.6789  -3.5214  -3.4889  -3.4486  -3.3712  -3.2908
    -3.1974  -3.1199  -3.0872  -3.0240  -2.6175  -1.3668   0.6053   1.4803
     2.6968   4.0740   4.6850   5.1816

          k = 0.2500 0.2500 0.0000 ( 12610 PWs)   bands (ev):

   -46.3299 -45.5748 -44.6647 -44.6413  -4.1932  -3.9658  -3.8800  -3.7808
    -3.7213  -3.6874  -3.6392  -3.5742  -3.5242  -3.4803  -3.4781  -3.3940
    -3.2851  -3.1969  -3.1168  -2.7089  -1.9993  -0.7321   1.2986   2.1236
     3.4241   4.3799   4.8843   5.2116

          k = 0.2500 0.3750 0.0000 ( 12622 PWs)   bands (ev):

   -46.3283 -45.5731 -44.6628 -44.6394  -4.2150  -4.1054  -3.9168  -3.8947
    -3.8670  -3.8313  -3.7137  -3.6441  -3.5405  -3.4447  -3.3497  -3.3062
    -3.2437  -3.0954  -2.7707  -1.4665  -0.7645   0.4090   2.1238   2.5870
     2.9788   3.5021   4.2277   4.6669

          k = 0.2500-0.5000 0.0000 ( 12660 PWs)   bands (ev):

   -46.3277 -45.5725 -44.6621 -44.6387  -4.3181  -4.0685  -3.9998  -3.9475
    -3.9163  -3.8800  -3.7846  -3.6364  -3.5486  -3.5029  -3.3113  -3.2663
    -3.2210  -3.0151  -2.5924   0.0157   0.6698   0.7636   1.4185   1.9330
     2.2491   3.2775   4.1842   4.8495

          k = 0.2500-0.3750 0.0000 ( 12622 PWs)   bands (ev):

   -46.3283 -45.5731 -44.6628 -44.6394  -4.2150  -4.1054  -3.9168  -3.8947
    -3.8670  -3.8313  -3.7137  -3.6441  -3.5405  -3.4447  -3.3497  -3.3062
    -3.2437  -3.0954  -2.7707  -1.4665  -0.7645   0.4090   2.1238   2.5870
     2.9788   3.5021   4.2277   4.6669

          k = 0.2500-0.2500 0.0000 ( 12610 PWs)   bands (ev):

   -46.3299 -45.5748 -44.6647 -44.6413  -4.1932  -3.9658  -3.8800  -3.7808
    -3.7213  -3.6874  -3.6392  -3.5742  -3.5242  -3.4803  -3.4781  -3.3940
    -3.2851  -3.1969  -3.1168  -2.7089  -1.9993  -0.7321   1.2986   2.1236
     3.4241   4.3799   4.8843   5.2116

          k = 0.2500-0.1250 0.0000 ( 12575 PWs)   bands (ev):

   -46.3314 -45.5765 -44.6666 -44.6432  -4.3030  -4.1213  -4.0122  -3.9552
    -3.9101  -3.7439  -3.6789  -3.5214  -3.4889  -3.4486  -3.3712  -3.2908
    -3.1974  -3.1199  -3.0872  -3.0240  -2.6175  -1.3668   0.6053   1.4803
     2.6968   4.0740   4.6849   5.1815

          k = 0.3750-0.0000 0.0000 ( 12594 PWs)   bands (ev):

   -46.3305 -45.5755 -44.6654 -44.6420  -4.3372  -4.2411  -4.1905  -4.1176
    -4.0095  -3.9386  -3.5733  -3.4954  -3.3236  -3.3141  -3.2521  -3.1780
    -3.1238  -2.9021  -2.8644  -2.0867  -1.6031  -0.6202   0.9817   1.7964
     2.0493   2.6530   3.3579   3.8762

          k = 0.3750 0.1250 0.0000 ( 12609 PWs)   bands (ev):

   -46.3298 -45.5748 -44.6647 -44.6413  -4.2366  -4.2025  -4.0425  -3.9345
    -3.9164  -3.8174  -3.5792  -3.5224  -3.4939  -3.4420  -3.4028  -3.3477
    -3.2586  -2.9879  -2.8207  -1.9211  -1.3794  -0.3386   1.3062   2.0641
     2.2859   2.9049   3.5890   4.0867

          k = 0.3750 0.2500 0.0000 ( 12622 PWs)   bands (ev):

   -46.3283 -45.5731 -44.6628 -44.6394  -4.2150  -4.1054  -3.9168  -3.8947
    -3.8670  -3.8313  -3.7137  -3.6441  -3.5405  -3.4447  -3.3497  -3.3062
    -3.2437  -3.0954  -2.7707  -1.4665  -0.7645   0.4090   2.1238   2.5870
     2.9788   3.5021   4.2277   4.6669

          k = 0.3750 0.3750 0.0000 ( 12670 PWs)   bands (ev):

   -46.3268 -45.5716 -44.6611 -44.6376  -4.2134  -4.1695  -4.1603  -4.1366
    -4.0191  -3.9761  -3.8538  -3.8412  -3.4802  -3.4127  -3.3652  -2.8153
    -2.7483  -2.7408  -2.7013  -0.5130   0.3269   1.5844   2.4316   3.2785
     3.3985   4.2047   4.7001   5.4314

          k = 0.3750-0.5000 0.0000 ( 12656 PWs)   bands (ev):

   -46.3262 -45.5708 -44.6603 -44.6368  -4.3012  -4.2645  -4.2472  -4.1824
    -4.0792  -3.9725  -3.9514  -3.8325  -3.5024  -3.4305  -3.3478  -2.7274
    -2.6316  -2.5599  -2.4868   0.7560   1.3313   1.6355   2.2370   3.0209
     3.3643   4.3648   5.1756   5.3195

          k = 0.3750-0.3750 0.0000 ( 12670 PWs)   bands (ev):

   -46.3268 -45.5716 -44.6611 -44.6376  -4.2134  -4.1695  -4.1603  -4.1366
    -4.0191  -3.9761  -3.8538  -3.8412  -3.4802  -3.4127  -3.3652  -2.8153
    -2.7483  -2.7408  -2.7013  -0.5130   0.3269   1.5844   2.4316   3.2785
     3.3985   4.2047   4.7001   5.4309

          k = 0.3750-0.2500 0.0000 ( 12622 PWs)   bands (ev):

   -46.3283 -45.5731 -44.6628 -44.6394  -4.2150  -4.1054  -3.9168  -3.8947
    -3.8670  -3.8313  -3.7137  -3.6441  -3.5405  -3.4447  -3.3497  -3.3062
    -3.2437  -3.0954  -2.7707  -1.4665  -0.7645   0.4090   2.1238   2.5870
     2.9788   3.5021   4.2277   4.6669

          k = 0.3750-0.1250 0.0000 ( 12609 PWs)   bands (ev):

   -46.3298 -45.5748 -44.6647 -44.6413  -4.2366  -4.2025  -4.0425  -3.9345
    -3.9164  -3.8174  -3.5792  -3.5224  -3.4939  -3.4420  -3.4028  -3.3477
    -3.2586  -2.9879  -2.8207  -1.9211  -1.3794  -0.3386   1.3062   2.0641
     2.2859   2.9049   3.5890   4.0867

          k =-0.5000 0.0000 0.0000 ( 12618 PWs)   bands (ev):

   -46.3298 -45.5748 -44.6646 -44.6412  -4.3449  -4.2945  -4.1644  -4.0780
    -4.0329  -3.9684  -3.6188  -3.4811  -3.3907  -3.3247  -3.3017  -3.2444
    -3.1104  -2.8926  -2.6708  -0.4164  -0.1014  -0.0307   0.3599   0.9079
     0.9128   2.2135   3.2323   4.1794

          k =-0.5000 0.1250 0.0000 ( 12650 PWs)   bands (ev):

   -46.3293 -45.5742 -44.6640 -44.6405  -4.3368  -4.1688  -4.0203  -4.0055
    -3.8808  -3.7723  -3.6047  -3.5770  -3.5411  -3.5193  -3.4234  -3.3683
    -3.2419  -2.9723  -2.6424  -0.3190   0.1449   0.1665   0.6745   1.1969
     1.3005   2.4876   3.4806   4.3525

          k =-0.5000 0.2500 0.0000 ( 12660 PWs)   bands (ev):

   -46.3277 -45.5725 -44.6621 -44.6387  -4.3181  -4.0685  -3.9998  -3.9475
    -3.9163  -3.8800  -3.7846  -3.6364  -3.5486  -3.5029  -3.3113  -3.2663
    -3.2210  -3.0151  -2.5924   0.0157   0.6698   0.7636   1.4185   1.9330
     2.2491   3.2775   4.1842   4.8494

          k =-0.5000 0.3750 0.0000 ( 12656 PWs)   bands (ev):

   -46.3262 -45.5708 -44.6603 -44.6368  -4.3012  -4.2645  -4.2472  -4.1824
    -4.0792  -3.9725  -3.9514  -3.8325  -3.5024  -3.4305  -3.3478  -2.7274
    -2.6316  -2.5599  -2.4868   0.7560   1.3313   1.6355   2.2370   3.0209
     3.3643   4.3648   5.1756   5.3195

          k =-0.5000-0.5000 0.0000 ( 12564 PWs)   bands (ev):

   -46.3252 -45.5698 -44.6592 -44.6357  -4.3789  -4.3679  -4.2926  -4.2926
    -4.1878  -3.9394  -3.9394  -3.9206  -3.4826  -3.4826  -3.3301  -2.6288
    -2.3469  -2.3294  -2.3199   1.5635   1.5635   2.6315   2.6315   3.8352
     4.0396   4.0396   4.3870   5.5407

     the Fermi energy is     1.1065 ev

!    total energy              =    -312.34989819 Ry
     estimated scf accuracy    <       0.00000048 Ry
     smearing contrib. (-TS)   =       0.00069332 Ry
     internal energy E=F+TS    =    -312.35059150 Ry

     The total energy is F=E-TS. E is the sum of the following terms:
     one-electron contribution =   -2707.62564887 Ry
     hartree contribution      =    1372.03136011 Ry
     xc contribution           =     -81.46542878 Ry
     ewald contribution        =    1104.82270417 Ry
     DFT-D3 Dispersion         =      -0.11357814 Ry

     convergence has been achieved in   7 iterations

     negative rho (up, down):  7.766E-06 0.000E+00

     Forces acting on atoms (cartesian axes, Ry/au):

     atom    1 type  1   force =    -0.00000002    0.00000044   -0.06360102
     atom    2 type  1   force =    -0.00000038    0.00000074   -0.00161706
     atom    3 type  1   force =     0.00000041   -0.00000063    0.00186585
     atom    4 type  2   force =    -0.00000013   -0.00000028   -0.00248860
     atom    5 type  2   force =     0.00000006   -0.00000009    0.00093241
     atom    6 type  2   force =    -0.00000008    0.00000006   -0.00020649
     atom    7 type  2   force =     0.00000016   -0.00000024    0.06511491
     The non-local contrib.  to forces
     atom    1 type  1   force =    -0.00000067    0.00000037    0.15171165
     atom    2 type  1   force =    -0.00000050    0.00000024   -0.00533568
     atom    3 type  1   force =     0.00000105   -0.00000086    0.02282504
     atom    4 type  2   force =    -0.00000471   -0.00000493   -0.00107347
     atom    5 type  2   force =    -0.00000434   -0.00000450    0.00030236
     atom    6 type  2   force =    -0.00000778   -0.00000785   -0.05689898
     atom    7 type  2   force =     0.00001334    0.00001285    0.05672252
     The ionic contribution  to forces
     atom    1 type  1   force =     0.00000277    0.00000162   69.94219402
     atom    2 type  1   force =    -0.00000126    0.00000080    0.12085577
     atom    3 type  1   force =    -0.00000102   -0.00000009  -71.16233832
     atom    4 type  2   force =    -0.00000116   -0.00000204    9.99074664
     atom    5 type  2   force =     0.00000093    0.00000028   -9.61941077
     atom    6 type  2   force =     0.00000054   -0.00000008  -27.53250259
     atom    7 type  2   force =    -0.00000079   -0.00000048   28.26045524
     The local contribution  to forces
     atom    1 type  1   force =    -0.00000161   -0.00000197  -70.15721371
     atom    2 type  1   force =     0.00000093   -0.00000077   -0.11729209
     atom    3 type  1   force =     0.00000007    0.00000015   71.13752679
     atom    4 type  2   force =     0.00000584    0.00000698   -9.99155163
     atom    5 type  2   force =     0.00000355    0.00000410    9.61875377
     atom    6 type  2   force =     0.00000719    0.00000784   27.58708480
     atom    7 type  2   force =    -0.00001238   -0.00001267  -28.25051905
     The core correction contribution to forces
     atom    1 type  1   force =     0.00000004   -0.00000002    0.00591598
     atom    2 type  1   force =     0.00000001    0.00000003    0.00004159
     atom    3 type  1   force =    -0.00000005    0.00000003   -0.00011967
     atom    4 type  2   force =     0.00000000    0.00000000    0.00000000
     atom    5 type  2   force =     0.00000000    0.00000000    0.00000000
     atom    6 type  2   force =     0.00000000    0.00000000    0.00000000
     atom    7 type  2   force =     0.00000000    0.00000000    0.00000000
     The Hubbard contrib.    to forces
     atom    1 type  1   force =     0.00000000    0.00000000    0.00000000
     atom    2 type  1   force =     0.00000000    0.00000000    0.00000000
     atom    3 type  1   force =     0.00000000    0.00000000    0.00000000
     atom    4 type  2   force =     0.00000000    0.00000000    0.00000000
     atom    5 type  2   force =     0.00000000    0.00000000    0.00000000
     atom    6 type  2   force =     0.00000000    0.00000000    0.00000000
     atom    7 type  2   force =     0.00000000    0.00000000    0.00000000
     The SCF correction term to forces
     atom    1 type  1   force =    -0.00000051    0.00000047   -0.00140389
     atom    2 type  1   force =     0.00000045    0.00000046    0.00013865
     atom    3 type  1   force =     0.00000038    0.00000016   -0.00015229
     atom    4 type  2   force =    -0.00000008   -0.00000028    0.00029769
     atom    5 type  2   force =    -0.00000006    0.00000006   -0.00000183
     atom    6 type  2   force =    -0.00000001    0.00000018   -0.00010507
     atom    7 type  2   force =     0.00000000    0.00000008    0.00010097

     DFT-D3 dispersion contribution to forces:
     atom    1 type  1   force =    -0.00000001   -0.00000000   -0.00484016
     atom    2 type  1   force =     0.00000001   -0.00000000   -0.00006039
     atom    3 type  1   force =     0.00000000    0.00000000    0.00408922
     atom    4 type  2   force =    -0.00000000    0.00000000   -0.00094290
     atom    5 type  2   force =    -0.00000000   -0.00000000    0.00125380
     atom    6 type  2   force =    -0.00000000    0.00000000    0.00218028
     atom    7 type  2   force =     0.00000000    0.00000000   -0.00167985

     Total force =     0.091095     Total SCF correction =     0.001457


     Computing stress (Cartesian axis) and pressure


     negative rho (up, down):  7.766E-06 0.000E+00
          total   stress  (Ry/bohr**3)                   (kbar)     P=       -6.36
  -0.00010796   0.00000000  -0.00000000          -15.88        0.00       -0.00
   0.00000000  -0.00010797  -0.00000000            0.00      -15.88       -0.00
  -0.00000000  -0.00000000   0.00008620           -0.00       -0.00       12.68

     Energy error            =      1.6E-02 Ry
     Gradient error          =      6.5E-02 Ry/Bohr

     number of scf cycles    =   2
     number of bfgs steps    =   1

     energy             old  =    -312.3338393886 Ry
     energy             new  =    -312.3498981886 Ry

     CASE: energy            _new < energy            _old

     new trust radius        =       0.1097520589 bohr
     new conv_thr            =       0.0000006511 Ry


ATOMIC_POSITIONS (angstrom)
Ag            0.7806795484        0.7806852237       17.6844636018
Ag            0.7806847370        0.7806855496       14.6819432363
Ag            0.7806855555        0.7806844423       11.5641429992
Li            2.3420525464        2.3420555386       16.2636883609
Li            2.3420549970        2.3420549124       13.1241547944
Li            2.3420548543        2.3420552870        9.9995763861
Li            0.7806788001        0.7806840639       19.9043100681



     Writing config-only to output data dir ./LiAg_mp-2426_100_ontop_0/LiAg_mp-2426_100_ontop_0.save/
     NEW-OLD atomic charge density approx. for the potential

     negative rho (up, down):  1.060E-05 0.000E+00

     total cpu time spent up to now is       10.3 secs

     per-process dynamical memory:   203.3 Mb

     Self-consistent Calculation

     iteration #  1     ecut=    55.00 Ry     beta= 0.30
     Davidson diagonalization with overlap
     ethr =  1.00E-06,  avg # of iterations =  9.0

     negative rho (up, down):  9.329E-06 0.000E+00

     total cpu time spent up to now is       10.8 secs

     total energy              =    -312.36036185 Ry
     estimated scf accuracy    <       0.00123721 Ry

     iteration #  2     ecut=    55.00 Ry     beta= 0.30
     Davidson diagonalization with overlap
     ethr =  2.75E-06,  avg # of iterations =  3.3

     negative rho (up, down):  1.256E-05 0.000E+00

     total cpu time spent up to now is       11.0 secs

     total energy              =    -312.35980474 Ry
     estimated scf accuracy    <       0.01628582 Ry

     iteration #  3     ecut=    55.00 Ry     beta= 0.30
     Davidson diagonalization with overlap
     ethr =  2.75E-06,  avg # of iterations =  3.4

     negative rho (up, down):  1.451E-05 0.000E+00

     total cpu time spent up to now is       11.2 secs

     total energy              =    -312.36032275 Ry
     estimated scf accuracy    <       0.00637250 Ry

     iteration #  4     ecut=    55.00 Ry     beta= 0.30
     Davidson diagonalization with overlap
     ethr =  2.75E-06,  avg # of iterations =  2.0

     negative rho (up, down):  1.227E-05 0.000E+00

     total cpu time spent up to now is       11.4 secs

     total energy              =    -312.36054956 Ry
     estimated scf accuracy    <       0.00170848 Ry

     iteration #  5     ecut=    55.00 Ry     beta= 0.30
     Davidson diagonalization with overlap
     ethr =  2.75E-06,  avg # of iterations =  1.1

     negative rho (up, down):  8.995E-06 0.000E+00

     total cpu time spent up to now is       11.5 secs

     total energy              =    -312.36063915 Ry
     estimated scf accuracy    <       0.00001565 Ry

     iteration #  6     ecut=    55.00 Ry     beta= 0.30
     Davidson diagonalization with overlap
     ethr =  3.48E-08,  avg # of iterations =  2.6

     negative rho (up, down):  8.019E-06 0.000E+00

     total cpu time spent up to now is       11.7 secs

     total energy              =    -312.36064179 Ry
     estimated scf accuracy    <       0.00000474 Ry

     iteration #  7     ecut=    55.00 Ry     beta= 0.30
     Davidson diagonalization with overlap
     ethr =  1.05E-08,  avg # of iterations =  2.4

     negative rho (up, down):  8.144E-06 0.000E+00

     total cpu time spent up to now is       11.9 secs

     total energy              =    -312.36064241 Ry
     estimated scf accuracy    <       0.00000147 Ry

     iteration #  8     ecut=    55.00 Ry     beta= 0.30
     Davidson diagonalization with overlap
     ethr =  3.26E-09,  avg # of iterations =  2.1

     negative rho (up, down):  7.867E-06 0.000E+00

     total cpu time spent up to now is       12.1 secs

     End of self-consistent calculation

          k = 0.0000 0.0000 0.0000 ( 12493 PWs)   bands (ev):

   -46.3278 -45.5853 -44.6710 -44.6274  -4.9417  -4.5786  -4.3426  -4.3263
    -4.3235  -4.2288  -4.1310  -3.5910  -3.4019  -3.4019  -3.1726  -3.1726
    -2.9311  -2.9311  -2.8439  -2.8115  -2.7293  -2.1599  -0.5190   0.5001
     1.6262   3.2021   4.1477   4.1816

          k = 0.0000 0.1250 0.0000 ( 12528 PWs)   bands (ev):

   -46.3272 -45.5846 -44.6702 -44.6266  -4.7405  -4.4007  -4.3108  -4.2006
    -4.1956  -4.1004  -3.9856  -3.6333  -3.4673  -3.3843  -3.3124  -3.1599
    -3.0040  -2.9326  -2.9211  -2.8894  -2.8044  -2.0042  -0.2823   0.6912
     1.8428   3.4066   4.3656   4.4138

          k = 0.0000 0.2500 0.0000 ( 12550 PWs)   bands (ev):

   -46.3256 -45.5828 -44.6682 -44.6245  -4.4725  -4.2471  -4.2195  -4.0784
    -3.9519  -3.7225  -3.6588  -3.4454  -3.4032  -3.3416  -3.3286  -3.1504
    -3.1095  -3.0738  -2.9795  -2.8995  -2.8384  -1.5555   0.3050   1.2374
     2.3993   3.7775   4.5036   4.9361

          k = 0.0000 0.3750 0.0000 ( 12594 PWs)   bands (ev):

   -46.3240 -45.5811 -44.6663 -44.6226  -4.3490  -4.2308  -4.1795  -4.1166
    -3.9843  -3.8968  -3.5401  -3.4550  -3.3227  -3.2988  -3.2523  -3.1461
    -3.0890  -2.8786  -2.8374  -2.0861  -1.5880  -0.5896   0.9659   1.7892
     2.0428   2.6053   3.3670   3.8693

          k = 0.0000-0.5000 0.0000 ( 12618 PWs)   bands (ev):

   -46.3234 -45.5804 -44.6655 -44.6218  -4.3345  -4.3068  -4.1514  -4.0771
    -3.9898  -3.9458  -3.5806  -3.4437  -3.3970  -3.3255  -3.2768  -3.2141
    -3.0760  -2.8696  -2.6362  -0.4218  -0.0884  -0.0302   0.3996   0.9128
     0.9334   2.1934   3.0889   4.1636

          k = 0.1250-0.0000 0.0000 ( 12528 PWs)   bands (ev):

   -46.3272 -45.5846 -44.6702 -44.6266  -4.7405  -4.4007  -4.3108  -4.2006
    -4.1956  -4.1004  -3.9856  -3.6333  -3.4673  -3.3843  -3.3124  -3.1599
    -3.0040  -2.9326  -2.9211  -2.8894  -2.8044  -2.0042  -0.2823   0.6912
     1.8428   3.4066   4.3656   4.4138

          k = 0.1250 0.1250 0.0000 ( 12540 PWs)   bands (ev):

   -46.3265 -45.5839 -44.6694 -44.6257  -4.5241  -4.2322  -4.1719  -4.1436
    -4.0451  -3.9847  -3.9408  -3.6552  -3.5246  -3.4014  -3.3158  -3.2714
    -3.0170  -3.0034  -2.9856  -2.9575  -2.8772  -1.8345  -0.0381   0.8907
     2.0733   3.6290   4.5889   4.6515

          k = 0.1250 0.2500 0.0000 ( 12575 PWs)   bands (ev):

   -46.3249 -45.5822 -44.6675 -44.6238  -4.3089  -4.1230  -4.0084  -3.9483
    -3.8775  -3.7199  -3.6585  -3.5095  -3.4588  -3.4348  -3.3329  -3.2556
    -3.1786  -3.1248  -3.0649  -2.9945  -2.6063  -1.3342   0.5753   1.4613
     2.6713   4.0645   4.6816   5.1671

          k = 0.1250 0.3750 0.0000 ( 12609 PWs)   bands (ev):

   -46.3234 -45.5805 -44.6656 -44.6218  -4.2288  -4.2056  -4.0451  -3.9179
    -3.8852  -3.7905  -3.5609  -3.5084  -3.4813  -3.4406  -3.3604  -3.3128
    -3.2253  -2.9594  -2.7947  -1.9216  -1.3670  -0.3085   1.2864   2.0597
     2.2752   2.8666   3.5962   4.0807

          k = 0.1250-0.5000 0.0000 ( 12650 PWs)   bands (ev):

   -46.3228 -45.5798 -44.6649 -44.6211  -4.3283  -4.1710  -4.0085  -3.9783
    -3.8741  -3.7467  -3.5867  -3.5634  -3.5274  -3.5203  -3.3901  -3.3204
    -3.2098  -2.9449  -2.6093  -0.3241   0.1450   0.1783   0.7131   1.1986
     1.3232   2.4695   3.3414   4.3335

          k = 0.1250-0.3750 0.0000 ( 12609 PWs)   bands (ev):

   -46.3234 -45.5805 -44.6656 -44.6218  -4.2288  -4.2056  -4.0451  -3.9179
    -3.8852  -3.7905  -3.5609  -3.5084  -3.4813  -3.4406  -3.3604  -3.3128
    -3.2253  -2.9594  -2.7947  -1.9216  -1.3670  -0.3085   1.2864   2.0597
     2.2752   2.8666   3.5962   4.0807

          k = 0.1250-0.2500 0.0000 ( 12575 PWs)   bands (ev):

   -46.3249 -45.5822 -44.6675 -44.6238  -4.3089  -4.1230  -4.0084  -3.9483
    -3.8775  -3.7199  -3.6585  -3.5095  -3.4588  -3.4348  -3.3329  -3.2556
    -3.1786  -3.1248  -3.0649  -2.9945  -2.6063  -1.3342   0.5753   1.4613
     2.6713   4.0645   4.6816   5.1670

          k = 0.1250-0.1250 0.0000 ( 12540 PWs)   bands (ev):

   -46.3265 -45.5839 -44.6694 -44.6257  -4.5241  -4.2322  -4.1719  -4.1436
    -4.0451  -3.9847  -3.9408  -3.6552  -3.5246  -3.4014  -3.3158  -3.2714
    -3.0170  -3.0034  -2.9856  -2.9575  -2.8772  -1.8345  -0.0381   0.8907
     2.0733   3.6290   4.5889   4.6515

          k = 0.2500-0.0000 0.0000 ( 12550 PWs)   bands (ev):

   -46.3256 -45.5828 -44.6682 -44.6245  -4.4725  -4.2471  -4.2195  -4.0784
    -3.9519  -3.7225  -3.6588  -3.4454  -3.4032  -3.3416  -3.3286  -3.1504
    -3.1095  -3.0738  -2.9795  -2.8995  -2.8384  -1.5555   0.3050   1.2374
     2.3994   3.7775   4.5036   4.9359

          k = 0.2500 0.1250 0.0000 ( 12575 PWs)   bands (ev):

   -46.3249 -45.5822 -44.6675 -44.6238  -4.3089  -4.1230  -4.0084  -3.9483
    -3.8775  -3.7199  -3.6585  -3.5095  -3.4588  -3.4348  -3.3329  -3.2556
    -3.1786  -3.1248  -3.0649  -2.9945  -2.6063  -1.3342   0.5753   1.4613
     2.6713   4.0645   4.6816   5.1672

          k = 0.2500 0.2500 0.0000 ( 12610 PWs)   bands (ev):

   -46.3234 -45.5805 -44.6656 -44.6219  -4.1931  -3.9616  -3.8782  -3.7727
    -3.7071  -3.6839  -3.6046  -3.5442  -3.5218  -3.4527  -3.4210  -3.3774
    -3.2517  -3.1653  -3.0988  -2.7074  -1.9919  -0.6993   1.2608   2.1023
     3.3987   4.3838   4.8650   5.2415

          k = 0.2500 0.3750 0.0000 ( 12622 PWs)   bands (ev):

   -46.3218 -45.5788 -44.6637 -44.6200  -4.2101  -4.1053  -3.9073  -3.8945
    -3.8576  -3.8170  -3.6779  -3.6154  -3.5086  -3.4040  -3.3464  -3.2680
    -3.2185  -3.0677  -2.7446  -1.4692  -0.7558   0.4387   2.0946   2.5853
     2.9648   3.4891   4.2256   4.6635

          k = 0.2500-0.5000 0.0000 ( 12660 PWs)   bands (ev):

   -46.3213 -45.5782 -44.6630 -44.6193  -4.3141  -4.0667  -3.9809  -3.9408
    -3.9102  -3.8803  -3.7503  -3.6096  -3.5080  -3.4653  -3.3068  -3.2340
    -3.1902  -2.9890  -2.5625   0.0109   0.6702   0.7711   1.4547   1.9412
     2.2684   3.2608   4.0555   4.8187

          k = 0.2500-0.3750 0.0000 ( 12622 PWs)   bands (ev):

   -46.3218 -45.5788 -44.6637 -44.6200  -4.2101  -4.1053  -3.9073  -3.8945
    -3.8576  -3.8170  -3.6779  -3.6154  -3.5086  -3.4040  -3.3464  -3.2680
    -3.2185  -3.0677  -2.7446  -1.4692  -0.7558   0.4387   2.0946   2.5853
     2.9648   3.4891   4.2256   4.6635

          k = 0.2500-0.2500 0.0000 ( 12610 PWs)   bands (ev):

   -46.3234 -45.5805 -44.6656 -44.6219  -4.1931  -3.9616  -3.8782  -3.7727
    -3.7071  -3.6839  -3.6046  -3.5442  -3.5218  -3.4527  -3.4210  -3.3774
    -3.2517  -3.1653  -3.0988  -2.7074  -1.9919  -0.6993   1.2608   2.1023
     3.3987   4.3838   4.8650   5.2415

          k = 0.2500-0.1250 0.0000 ( 12575 PWs)   bands (ev):

   -46.3249 -45.5822 -44.6675 -44.6238  -4.3089  -4.1230  -4.0084  -3.9483
    -3.8775  -3.7199  -3.6585  -3.5095  -3.4588  -3.4348  -3.3329  -3.2556
    -3.1786  -3.1248  -3.0649  -2.9945  -2.6063  -1.3342   0.5753   1.4613
     2.6713   4.0645   4.6815   5.1670

          k = 0.3750-0.0000 0.0000 ( 12594 PWs)   bands (ev):

   -46.3240 -45.5811 -44.6663 -44.6226  -4.3490  -4.2308  -4.1795  -4.1166
    -3.9843  -3.8968  -3.5401  -3.4550  -3.3227  -3.2988  -3.2523  -3.1461
    -3.0890  -2.8786  -2.8374  -2.0861  -1.5880  -0.5896   0.9659   1.7892
     2.0428   2.6053   3.3670   3.8693

          k = 0.3750 0.1250 0.0000 ( 12609 PWs)   bands (ev):

   -46.3234 -45.5805 -44.6656 -44.6218  -4.2288  -4.2056  -4.0451  -3.9179
    -3.8852  -3.7905  -3.5609  -3.5084  -3.4813  -3.4406  -3.3604  -3.3128
    -3.2253  -2.9594  -2.7947  -1.9216  -1.3670  -0.3085   1.2864   2.0597
     2.2752   2.8666   3.5962   4.0807

          k = 0.3750 0.2500 0.0000 ( 12622 PWs)   bands (ev):

   -46.3218 -45.5788 -44.6637 -44.6200  -4.2101  -4.1053  -3.9073  -3.8945
    -3.8576  -3.8170  -3.6779  -3.6154  -3.5086  -3.4040  -3.3464  -3.2680
    -3.2185  -3.0677  -2.7446  -1.4692  -0.7558   0.4387   2.0946   2.5853
     2.9648   3.4891   4.2256   4.6636

          k = 0.3750 0.3750 0.0000 ( 12670 PWs)   bands (ev):

   -46.3204 -45.5772 -44.6620 -44.6182  -4.2118  -4.1698  -4.1663  -4.1392
    -4.0160  -3.9422  -3.8135  -3.8060  -3.4411  -3.3722  -3.3179  -2.8145
    -2.7341  -2.7175  -2.6694  -0.5170   0.3361   1.6139   2.4339   3.2302
     3.4275   4.1768   4.7247   5.4042

          k = 0.3750-0.5000 0.0000 ( 12656 PWs)   bands (ev):

   -46.3197 -45.5765 -44.6612 -44.6174  -4.3012  -4.2702  -4.2503  -4.1828
    -4.0444  -3.9693  -3.9139  -3.7962  -3.4606  -3.3897  -3.3004  -2.7028
    -2.6302  -2.5386  -2.4625   0.7520   1.3338   1.6422   2.2690   3.0428
     3.3876   4.3436   5.0588   5.3116

          k = 0.3750-0.3750 0.0000 ( 12670 PWs)   bands (ev):

   -46.3204 -45.5772 -44.6620 -44.6182  -4.2118  -4.1698  -4.1663  -4.1392
    -4.0160  -3.9422  -3.8135  -3.8060  -3.4411  -3.3722  -3.3179  -2.8145
    -2.7341  -2.7175  -2.6694  -0.5170   0.3361   1.6139   2.4339   3.2302
     3.4275   4.1768   4.7247   5.4040

          k = 0.3750-0.2500 0.0000 ( 12622 PWs)   bands (ev):

   -46.3218 -45.5788 -44.6637 -44.6200  -4.2101  -4.1053  -3.9073  -3.8945
    -3.8576  -3.8170  -3.6779  -3.6154  -3.5086  -3.4040  -3.3464  -3.2680
    -3.2185  -3.0677  -2.7446  -1.4692  -0.7558   0.4387   2.0946   2.5853
     2.9648   3.4891   4.2256   4.6636

          k = 0.3750-0.1250 0.0000 ( 12609 PWs)   bands (ev):

   -46.3234 -45.5805 -44.6656 -44.6218  -4.2288  -4.2056  -4.0451  -3.9179
    -3.8852  -3.7905  -3.5609  -3.5084  -3.4813  -3.4406  -3.3604  -3.3128
    -3.2253  -2.9594  -2.7947  -1.9216  -1.3670  -0.3085   1.2864   2.0597
     2.2752   2.8666   3.5962   4.0807

          k =-0.5000 0.0000 0.0000 ( 12618 PWs)   bands (ev):

   -46.3234 -45.5804 -44.6655 -44.6218  -4.3345  -4.3068  -4.1514  -4.0771
    -3.9898  -3.9458  -3.5806  -3.4437  -3.3970  -3.3255  -3.2768  -3.2141
    -3.0760  -2.8696  -2.6362  -0.4218  -0.0884  -0.0302   0.3996   0.9128
     0.9334   2.1934   3.0889   4.1636

          k =-0.5000 0.1250 0.0000 ( 12650 PWs)   bands (ev):

   -46.3228 -45.5798 -44.6649 -44.6211  -4.3283  -4.1710  -4.0085  -3.9783
    -3.8741  -3.7467  -3.5867  -3.5634  -3.5274  -3.5203  -3.3901  -3.3204
    -3.2098  -2.9449  -2.6093  -0.3241   0.1450   0.1783   0.7131   1.1986
     1.3232   2.4695   3.3414   4.3335

          k =-0.5000 0.2500 0.0000 ( 12660 PWs)   bands (ev):

   -46.3213 -45.5782 -44.6630 -44.6193  -4.3141  -4.0667  -3.9809  -3.9408
    -3.9102  -3.8803  -3.7503  -3.6096  -3.5080  -3.4653  -3.3068  -3.2340
    -3.1902  -2.9890  -2.5625   0.0109   0.6702   0.7711   1.4547   1.9412
     2.2684   3.2608   4.0555   4.8188

          k =-0.5000 0.3750 0.0000 ( 12656 PWs)   bands (ev):

   -46.3197 -45.5765 -44.6612 -44.6174  -4.3012  -4.2702  -4.2503  -4.1828
    -4.0444  -3.9693  -3.9139  -3.7962  -3.4606  -3.3897  -3.3004  -2.7028
    -2.6302  -2.5386  -2.4625   0.7520   1.3338   1.6422   2.2690   3.0428
     3.3876   4.3436   5.0588   5.3116

          k =-0.5000-0.5000 0.0000 ( 12564 PWs)   bands (ev):

   -46.3188 -45.5755 -44.6601 -44.6163  -4.3842  -4.3716  -4.2939  -4.2939
    -4.1534  -3.9165  -3.9030  -3.9030  -3.4403  -3.4403  -3.2814  -2.5946
    -2.3527  -2.3270  -2.2781   1.5639   1.5639   2.6589   2.6589   3.8265
     4.0785   4.0785   4.3839   5.5233

     the Fermi energy is     1.0995 ev

!    total energy              =    -312.36064256 Ry
     estimated scf accuracy    <       0.00000021 Ry
     smearing contrib. (-TS)   =       0.00067487 Ry
     internal energy E=F+TS    =    -312.36131743 Ry

     The total energy is F=E-TS. E is the sum of the following terms:
     one-electron contribution =   -2717.15685007 Ry
     hartree contribution      =    1376.81420532 Ry
     xc contribution           =     -81.45554691 Ry
     ewald contribution        =    1109.55079113 Ry
     DFT-D3 Dispersion         =      -0.11391689 Ry

     convergence has been achieved in   8 iterations

     negative rho (up, down):  7.867E-06 0.000E+00

     Forces acting on atoms (cartesian axes, Ry/au):

     atom    1 type  1   force =    -0.00000007   -0.00000132   -0.03316201
     atom    2 type  1   force =    -0.00000017    0.00000049   -0.00280818
     atom    3 type  1   force =    -0.00000020   -0.00000045    0.00180838
     atom    4 type  2   force =     0.00000001    0.00000025   -0.00505176
     atom    5 type  2   force =     0.00000003    0.00000020    0.00057794
     atom    6 type  2   force =     0.00000043    0.00000044    0.00010159
     atom    7 type  2   force =    -0.00000004    0.00000038    0.03853403
     The non-local contrib.  to forces
     atom    1 type  1   force =    -0.00000114   -0.00000162    0.11716040
     atom    2 type  1   force =    -0.00000052    0.00000120   -0.00763074
     atom    3 type  1   force =    -0.00000089   -0.00000021    0.02308311
     atom    4 type  2   force =    -0.00000591   -0.00000580   -0.00280173
     atom    5 type  2   force =    -0.00000440   -0.00000433    0.00030111
     atom    6 type  2   force =    -0.00000768   -0.00000756   -0.05713622
     atom    7 type  2   force =     0.00001313    0.00001341    0.05033987
     The ionic contribution  to forces
     atom    1 type  1   force =     0.00000253    0.00000089   70.60920910
     atom    2 type  1   force =    -0.00000063   -0.00000068   -0.04013304
     atom    3 type  1   force =    -0.00000172    0.00000084  -71.30833638
     atom    4 type  2   force =    -0.00000161   -0.00000002   10.12425336
     atom    5 type  2   force =     0.00000084    0.00000061   -9.65354793
     atom    6 type  2   force =     0.00000109   -0.00000085  -27.57165960
     atom    7 type  2   force =    -0.00000050   -0.00000080   27.84021449
     The local contribution  to forces
     atom    1 type  1   force =    -0.00000220   -0.00000115  -70.75624074
     atom    2 type  1   force =     0.00000104    0.00000011    0.04563863
     atom    3 type  1   force =     0.00000200   -0.00000154   71.28283759
     atom    4 type  2   force =     0.00000760    0.00000618  -10.12581201
     atom    5 type  2   force =     0.00000353    0.00000361    9.65266454
     atom    6 type  2   force =     0.00000697    0.00000873   27.62658782
     atom    7 type  2   force =    -0.00001283   -0.00001232  -27.85030100
     The core correction contribution to forces
     atom    1 type  1   force =    -0.00000006    0.00000000    0.00217761
     atom    2 type  1   force =     0.00000003   -0.00000003    0.00023673
     atom    3 type  1   force =    -0.00000001   -0.00000000   -0.00009171
     atom    4 type  2   force =     0.00000000    0.00000000    0.00000000
     atom    5 type  2   force =     0.00000000    0.00000000    0.00000000
     atom    6 type  2   force =     0.00000000    0.00000000    0.00000000
     atom    7 type  2   force =     0.00000000    0.00000000    0.00000000
     The Hubbard contrib.    to forces
     atom    1 type  1   force =     0.00000000    0.00000000    0.00000000
     atom    2 type  1   force =     0.00000000    0.00000000    0.00000000
     atom    3 type  1   force =     0.00000000    0.00000000    0.00000000
     atom    4 type  2   force =     0.00000000    0.00000000    0.00000000
     atom    5 type  2   force =     0.00000000    0.00000000    0.00000000
     atom    6 type  2   force =     0.00000000    0.00000000    0.00000000
     atom    7 type  2   force =     0.00000000    0.00000000    0.00000000
     The SCF correction term to forces
     atom    1 type  1   force =     0.00000062    0.00000047   -0.00064859
     atom    2 type  1   force =    -0.00000028   -0.00000022   -0.00110007
     atom    3 type  1   force =     0.00000022    0.00000036    0.00012716
     atom    4 type  2   force =    -0.00000025   -0.00000022    0.00014948
     atom    5 type  2   force =    -0.00000013    0.00000021   -0.00017204
     atom    6 type  2   force =    -0.00000014    0.00000001    0.00007613
     atom    7 type  2   force =    -0.00000004   -0.00000001    0.00020261

     DFT-D3 dispersion contribution to forces:
     atom    1 type  1   force =    -0.00000001   -0.00000000   -0.00487009
     atom    2 type  1   force =     0.00000001    0.00000000    0.00013002
     atom    3 type  1   force =     0.00000000   -0.00000000    0.00413832
     atom    4 type  2   force =    -0.00000000   -0.00000000   -0.00089115
     atom    5 type  2   force =    -0.00000000   -0.00000000    0.00128197
     atom    6 type  2   force =    -0.00000000    0.00000000    0.00218316
     atom    7 type  2   force =     0.00000000    0.00000000   -0.00197224

     Total force =     0.051202     Total SCF correction =     0.001321


     Computing stress (Cartesian axis) and pressure


     negative rho (up, down):  7.867E-06 0.000E+00
          total   stress  (Ry/bohr**3)                   (kbar)     P=       -7.99
  -0.00010101  -0.00000000  -0.00000000          -14.86       -0.00       -0.00
  -0.00000000  -0.00010100  -0.00000000           -0.00      -14.86       -0.00
  -0.00000000  -0.00000000   0.00003901           -0.00       -0.00        5.74

     Energy error            =      1.1E-02 Ry
     Gradient error          =      3.9E-02 Ry/Bohr

     number of scf cycles    =   3
     number of bfgs steps    =   2

     energy             old  =    -312.3498981886 Ry
     energy             new  =    -312.3606425578 Ry

     CASE: energy            _new < energy            _old

     new trust radius        =       0.1451043438 bohr
     new conv_thr            =       0.0000003853 Ry


ATOMIC_POSITIONS (angstrom)
Ag            0.7806794643        0.7806838526       17.6148213734
Ag            0.7806843639        0.7806864790       14.6778189701
Ag            0.7806855098        0.7806836086       11.5671854682
Li            2.3420524984        2.3420557104       16.2564722915
Li            2.3420550552        2.3420551113       13.1252844679
Li            2.3420553293        2.3420558437        9.9996008956
Li            0.7806788178        0.7806844119       19.9810959800



     Writing config-only to output data dir ./LiAg_mp-2426_100_ontop_0/LiAg_mp-2426_100_ontop_0.save/
     NEW-OLD atomic charge density approx. for the potential

     negative rho (up, down):  1.170E-05 0.000E+00

     total cpu time spent up to now is       12.8 secs

     per-process dynamical memory:   203.3 Mb

     Self-consistent Calculation

     iteration #  1     ecut=    55.00 Ry     beta= 0.30
     Davidson diagonalization with overlap
     ethr =  1.00E-06,  avg # of iterations = 10.4

     negative rho (up, down):  9.902E-06 0.000E+00

     total cpu time spent up to now is       13.5 secs

     total energy              =    -312.36644321 Ry
     estimated scf accuracy    <       0.00220052 Ry

     iteration #  2     ecut=    55.00 Ry     beta= 0.30
     Davidson diagonalization with overlap
     ethr =  4.89E-06,  avg # of iterations =  3.9

     negative rho (up, down):  1.863E-05 0.000E+00

     total cpu time spent up to now is       13.8 secs

     total energy              =    -312.36497907 Ry
     estimated scf accuracy    <       0.05335486 Ry

     iteration #  3     ecut=    55.00 Ry     beta= 0.30
     Davidson diagonalization with overlap
     ethr =  4.89E-06,  avg # of iterations =  3.6

     negative rho (up, down):  2.133E-05 0.000E+00

     total cpu time spent up to now is       14.0 secs

     total energy              =    -312.36663287 Ry
     estimated scf accuracy    <       0.00594320 Ry

     iteration #  4     ecut=    55.00 Ry     beta= 0.30
     Davidson diagonalization with overlap
     ethr =  4.89E-06,  avg # of iterations =  2.1

     negative rho (up, down):  1.923E-05 0.000E+00

     total cpu time spent up to now is       14.2 secs

     total energy              =    -312.36684452 Ry
     estimated scf accuracy    <       0.00261077 Ry

     iteration #  5     ecut=    55.00 Ry     beta= 0.30
     Davidson diagonalization with overlap
     ethr =  4.89E-06,  avg # of iterations =  1.0

     negative rho (up, down):  1.428E-05 0.000E+00

     total cpu time spent up to now is       14.4 secs

     total energy              =    -312.36699607 Ry
     estimated scf accuracy    <       0.00003958 Ry

     iteration #  6     ecut=    55.00 Ry     beta= 0.30
     Davidson diagonalization with overlap
     ethr =  8.80E-08,  avg # of iterations =  2.4

     negative rho (up, down):  8.815E-06 0.000E+00

     total cpu time spent up to now is       14.6 secs

     total energy              =    -312.36700310 Ry
     estimated scf accuracy    <       0.00001279 Ry

     iteration #  7     ecut=    55.00 Ry     beta= 0.30
     Davidson diagonalization with overlap
     ethr =  2.84E-08,  avg # of iterations =  1.8

     negative rho (up, down):  8.283E-06 0.000E+00

     total cpu time spent up to now is       14.7 secs

     total energy              =    -312.36700523 Ry
     estimated scf accuracy    <       0.00000288 Ry

     iteration #  8     ecut=    55.00 Ry     beta= 0.30
     Davidson diagonalization with overlap
     ethr =  6.39E-09,  avg # of iterations =  2.8

     negative rho (up, down):  7.558E-06 0.000E+00

     total cpu time spent up to now is       14.9 secs

     End of self-consistent calculation

          k = 0.0000 0.0000 0.0000 ( 12493 PWs)   bands (ev):

   -46.3558 -45.5921 -44.6719 -44.6093  -4.9615  -4.5827  -4.3568  -4.3360
    -4.2909  -4.2299  -4.1038  -3.5602  -3.4094  -3.4094  -3.1457  -3.1457
    -2.8882  -2.8882  -2.8573  -2.8136  -2.7016  -2.1217  -0.5396   0.4856
     1.6039   3.2092   4.1434   4.1853

          k = 0.0000 0.1250 0.0000 ( 12528 PWs)   bands (ev):

   -46.3552 -45.5915 -44.6711 -44.6085  -4.7616  -4.4048  -4.3252  -4.2113
    -4.1634  -4.1023  -3.9541  -3.6352  -3.4343  -3.3914  -3.2867  -3.1334
    -2.9639  -2.9433  -2.8953  -2.8768  -2.7780  -1.9611  -0.3075   0.6755
     1.8194   3.4078   4.3593   4.4167

          k = 0.0000 0.2500 0.0000 ( 12550 PWs)   bands (ev):

   -46.3535 -45.5897 -44.6691 -44.6065  -4.4942  -4.2603  -4.2224  -4.0509
    -3.9640  -3.7096  -3.6362  -3.4139  -3.4070  -3.3475  -3.2665  -3.1544
    -3.0966  -3.0716  -2.9555  -2.8580  -2.8199  -1.5060   0.2732   1.2152
     2.3749   3.7684   4.4983   4.9082

          k = 0.0000 0.3750 0.0000 ( 12594 PWs)   bands (ev):

   -46.3520 -45.5880 -44.6672 -44.6045  -4.3717  -4.2416  -4.1915  -4.1191
    -3.9588  -3.8653  -3.4972  -3.4106  -3.3357  -3.3033  -3.2559  -3.1253
    -3.0615  -2.8375  -2.8012  -2.0891  -1.5736  -0.5456   0.9474   1.7802
     2.0323   2.5485   3.3905   3.8619

          k = 0.0000-0.5000 0.0000 ( 12618 PWs)   bands (ev):

   -46.3514 -45.5873 -44.6664 -44.6037  -4.3450  -4.3302  -4.1625  -4.0798
    -3.9574  -3.9219  -3.5259  -3.4102  -3.4076  -3.3292  -3.2805  -3.1942
    -3.0486  -2.8289  -2.5889  -0.4326  -0.0785  -0.0326   0.4447   0.9136
     0.9698   2.1886   2.9187   4.1440

          k = 0.1250-0.0000 0.0000 ( 12528 PWs)   bands (ev):

   -46.3552 -45.5915 -44.6711 -44.6085  -4.7616  -4.4048  -4.3252  -4.2114
    -4.1634  -4.1023  -3.9541  -3.6352  -3.4343  -3.3914  -3.2867  -3.1334
    -2.9639  -2.9433  -2.8953  -2.8768  -2.7780  -1.9611  -0.3075   0.6755
     1.8194   3.4078   4.3593   4.4167

          k = 0.1250 0.1250 0.0000 ( 12540 PWs)   bands (ev):

   -46.3545 -45.5907 -44.6703 -44.6077  -4.5474  -4.2449  -4.1777  -4.1568
    -4.0463  -3.9405  -3.9163  -3.6618  -3.5308  -3.3532  -3.2950  -3.2437
    -3.0301  -2.9793  -2.9588  -2.9301  -2.8543  -1.7882  -0.0674   0.8740
     2.0491   3.6249   4.5813   4.6537

          k = 0.1250 0.2500 0.0000 ( 12575 PWs)   bands (ev):

   -46.3529 -45.5890 -44.6684 -44.6057  -4.3313  -4.1362  -4.0111  -3.9613
    -3.8483  -3.7112  -3.6435  -3.5129  -3.4339  -3.4243  -3.2842  -3.2283
    -3.1630  -3.1333  -3.0415  -2.9507  -2.5951  -1.2846   0.5385   1.4393
     2.6468   4.0528   4.6757   5.1415

          k = 0.1250 0.3750 0.0000 ( 12609 PWs)   bands (ev):

   -46.3514 -45.5873 -44.6665 -44.6038  -4.2440  -4.2248  -4.0588  -3.9190
    -3.8555  -3.7649  -3.5503  -3.5167  -3.4557  -3.4294  -3.3328  -3.2880
    -3.1937  -2.9186  -2.7584  -1.9261  -1.3555  -0.2657   1.2618   2.0542
     2.2595   2.8208   3.6174   4.0747

          k = 0.1250-0.5000 0.0000 ( 12650 PWs)   bands (ev):

   -46.3508 -45.5867 -44.6658 -44.6030  -4.3403  -4.1934  -4.0225  -3.9477
    -3.8752  -3.7220  -3.5975  -3.5333  -3.5235  -3.5021  -3.3671  -3.2927
[...]
     1.7898   3.3011   4.3426   4.3991

          k = 0.0000 0.2500 0.0000 ( 12550 PWs)   bands (ev):

   -46.4172 -45.5799 -44.6588 -44.6217  -4.4929  -4.2444  -4.2187  -3.9450
    -3.9052  -3.6758  -3.6157  -3.4242  -3.3621  -3.3332  -3.1787  -3.1482
    -3.1194  -3.0470  -2.7951  -2.7831  -2.7649  -1.4867   0.2337   1.1680
     2.3473   3.6950   4.4768   4.8445

          k = 0.0000 0.3750 0.0000 ( 12594 PWs)   bands (ev):

   -46.4157 -45.5782 -44.6568 -44.6197  -4.3738  -4.2176  -4.1509  -4.1287
    -3.8209  -3.8040  -3.4335  -3.3695  -3.3599  -3.2941  -3.2826  -3.0209
    -2.9596  -2.7784  -2.7645  -2.0958  -1.5049  -0.5235   0.9383   1.7643
     1.9937   2.4912   3.4015   3.8747

          k = 0.0000-0.5000 0.0000 ( 12618 PWs)   bands (ev):

   -46.4151 -45.5775 -44.6561 -44.6190  -4.3338  -4.3206  -4.1170  -4.0887
    -3.8949  -3.7865  -3.4769  -3.4446  -3.3611  -3.3407  -3.2668  -3.0290
    -3.0067  -2.7553  -2.5607  -0.4488  -0.0673   0.0163   0.5114   0.9343
     0.9750   2.1737   2.7164   4.1047

          k = 0.1250-0.0000 0.0000 ( 12528 PWs)   bands (ev):

   -46.4188 -45.5817 -44.6608 -44.6237  -4.7633  -4.4281  -4.2992  -4.2337
    -4.1224  -4.0093  -3.8140  -3.6118  -3.3944  -3.3774  -3.2101  -3.0879
    -2.9742  -2.9281  -2.9180  -2.8086  -2.6156  -1.9372  -0.3468   0.6338
     1.7898   3.3011   4.3426   4.3991

          k = 0.1250 0.1250 0.0000 ( 12540 PWs)   bands (ev):

   -46.4182 -45.5809 -44.6600 -44.6228  -4.5275  -4.2379  -4.1940  -4.1817
    -4.0626  -3.7938  -3.7812  -3.6391  -3.5160  -3.3434  -3.1925  -3.1680
    -3.0600  -3.0105  -2.9044  -2.8934  -2.6923  -1.7664  -0.1101   0.8333
     2.0179   3.5204   4.5631   4.6360

          k = 0.1250 0.2500 0.0000 ( 12575 PWs)   bands (ev):

   -46.4166 -45.5792 -44.6580 -44.6209  -4.2791  -4.1461  -4.0254  -3.9392
    -3.7159  -3.6842  -3.6230  -3.5204  -3.4375  -3.3646  -3.2061  -3.2002
    -3.1524  -3.1066  -2.9338  -2.8751  -2.5226  -1.2667   0.4923   1.3961
     2.6160   3.9790   4.6502   5.0850

          k = 0.1250 0.3750 0.0000 ( 12609 PWs)   bands (ev):

   -46.4151 -45.5775 -44.6561 -44.6190  -4.2154  -4.1750  -4.0688  -3.9268
    -3.7954  -3.6379  -3.5515  -3.5155  -3.4806  -3.3848  -3.3014  -3.1336
    -3.1136  -2.8595  -2.7342  -1.9326  -1.2847  -0.2440   1.2447   2.0426
     2.2158   2.7797   3.6258   4.0879

          k = 0.1250-0.5000 0.0000 ( 12650 PWs)   bands (ev):

   -46.4145 -45.5769 -44.6554 -44.6183  -4.3167  -4.1366  -4.0315  -3.8854
    -3.8786  -3.6333  -3.6000  -3.5619  -3.4938  -3.4547  -3.2692  -3.2041
    -3.0893  -2.8455  -2.5361  -0.3506   0.1949   0.1992   0.8280   1.2266
     1.3542   2.4444   2.9817   4.2675

          k = 0.1250-0.3750 0.0000 ( 12609 PWs)   bands (ev):

   -46.4151 -45.5775 -44.6561 -44.6190  -4.2154  -4.1750  -4.0688  -3.9268
    -3.7954  -3.6379  -3.5515  -3.5155  -3.4806  -3.3848  -3.3014  -3.1336
    -3.1136  -2.8595  -2.7342  -1.9326  -1.2847  -0.2440   1.2447   2.0426
     2.2158   2.7797   3.6258   4.0879

          k = 0.1250-0.2500 0.0000 ( 12575 PWs)   bands (ev):

   -46.4166 -45.5792 -44.6580 -44.6209  -4.2791  -4.1461  -4.0254  -3.9392
    -3.7159  -3.6842  -3.6230  -3.5204  -3.4375  -3.3646  -3.2061  -3.2002
    -3.1524  -3.1066  -2.9338  -2.8751  -2.5226  -1.2667   0.4923   1.3961
     2.6160   3.9790   4.6502   5.0850

          k = 0.1250-0.1250 0.0000 ( 12540 PWs)   bands (ev):

   -46.4182 -45.5809 -44.6600 -44.6228  -4.5275  -4.2379  -4.1940  -4.1817
    -4.0626  -3.7938  -3.7812  -3.6391  -3.5160  -3.3434  -3.1925  -3.1680
    -3.0600  -3.0105  -2.9044  -2.8934  -2.6923  -1.7664  -0.1101   0.8333
     2.0179   3.5204   4.5631   4.6360

          k = 0.2500-0.0000 0.0000 ( 12550 PWs)   bands (ev):

   -46.4172 -45.5799 -44.6588 -44.6217  -4.4929  -4.2444  -4.2187  -3.9450
    -3.9052  -3.6758  -3.6157  -3.4242  -3.3621  -3.3332  -3.1787  -3.1482
    -3.1194  -3.0470  -2.7951  -2.7831  -2.7649  -1.4867   0.2337   1.1680
     2.3473   3.6950   4.4768   4.8445

          k = 0.2500 0.1250 0.0000 ( 12575 PWs)   bands (ev):

   -46.4166 -45.5792 -44.6580 -44.6209  -4.2791  -4.1461  -4.0254  -3.9392
    -3.7159  -3.6842  -3.6230  -3.5204  -3.4375  -3.3646  -3.2061  -3.2002
    -3.1524  -3.1066  -2.9338  -2.8751  -2.5226  -1.2667   0.4923   1.3961
     2.6160   3.9790   4.6502   5.0850

          k = 0.2500 0.2500 0.0000 ( 12610 PWs)   bands (ev):

   -46.4151 -45.5776 -44.6562 -44.6191  -4.1383  -3.9578  -3.8727  -3.7875
    -3.7289  -3.6791  -3.5568  -3.5345  -3.4473  -3.3644  -3.2767  -3.2033
    -3.1841  -3.0666  -3.0501  -2.6916  -1.9063  -0.6344   1.1550   2.0414
     3.3374   4.3694   4.7540   5.3661

          k = 0.2500 0.3750 0.0000 ( 12622 PWs)   bands (ev):

   -46.4136 -45.5758 -44.6542 -44.6171  -4.2022  -4.0498  -3.9425  -3.9025
    -3.8759  -3.7500  -3.5714  -3.4881  -3.4266  -3.3607  -3.3189  -3.2160
    -3.0517  -2.9747  -2.6782  -1.4849  -0.6716   0.5009   2.0206   2.5560
     2.9218   3.4845   4.2210   4.6703

          k = 0.2500-0.5000 0.0000 ( 12660 PWs)   bands (ev):

   -46.4130 -45.5752 -44.6535 -44.6164  -4.3076  -4.0124  -4.0074  -3.9713
    -3.8787  -3.8459  -3.5607  -3.5599  -3.4044  -3.4033  -3.3185  -3.1842
    -3.0278  -2.8917  -2.4900  -0.0155   0.7315   0.7825   1.5784   1.9826
     2.2806   3.2221   3.7335   4.7291

          k = 0.2500-0.3750 0.0000 ( 12622 PWs)   bands (ev):

   -46.4136 -45.5758 -44.6542 -44.6171  -4.2022  -4.0498  -3.9425  -3.9025
    -3.8759  -3.7500  -3.5714  -3.4881  -3.4266  -3.3607  -3.3189  -3.2160
    -3.0517  -2.9747  -2.6782  -1.4849  -0.6716   0.5009   2.0206   2.5560
     2.9218   3.4845   4.2210   4.6703

          k = 0.2500-0.2500 0.0000 ( 12610 PWs)   bands (ev):

   -46.4151 -45.5776 -44.6562 -44.6191  -4.1383  -3.9578  -3.8727  -3.7875
    -3.7289  -3.6791  -3.5568  -3.5345  -3.4473  -3.3644  -3.2767  -3.2033
    -3.1841  -3.0666  -3.0501  -2.6916  -1.9063  -0.6344   1.1550   2.0414
     3.3374   4.3694   4.7540   5.3661

          k = 0.2500-0.1250 0.0000 ( 12575 PWs)   bands (ev):

   -46.4166 -45.5792 -44.6580 -44.6209  -4.2791  -4.1461  -4.0254  -3.9392
    -3.7159  -3.6842  -3.6230  -3.5204  -3.4375  -3.3646  -3.2061  -3.2002
    -3.1524  -3.1066  -2.9338  -2.8751  -2.5226  -1.2667   0.4923   1.3961
     2.6160   3.9790   4.6502   5.0850

          k = 0.3750-0.0000 0.0000 ( 12594 PWs)   bands (ev):

   -46.4157 -45.5782 -44.6568 -44.6197  -4.3738  -4.2176  -4.1509  -4.1287
    -3.8209  -3.8040  -3.4335  -3.3695  -3.3599  -3.2941  -3.2826  -3.0209
    -2.9596  -2.7784  -2.7645  -2.0958  -1.5049  -0.5235   0.9383   1.7643
     1.9937   2.4912   3.4015   3.8747

          k = 0.3750 0.1250 0.0000 ( 12609 PWs)   bands (ev):

   -46.4151 -45.5775 -44.6561 -44.6190  -4.2154  -4.1750  -4.0688  -3.9268
    -3.7954  -3.6379  -3.5515  -3.5155  -3.4806  -3.3848  -3.3014  -3.1336
    -3.1136  -2.8595  -2.7342  -1.9326  -1.2847  -0.2440   1.2447   2.0426
     2.2158   2.7797   3.6258   4.0879

          k = 0.3750 0.2500 0.0000 ( 12622 PWs)   bands (ev):

   -46.4136 -45.5758 -44.6542 -44.6171  -4.2022  -4.0498  -3.9425  -3.9025
    -3.8759  -3.7500  -3.5714  -3.4881  -3.4266  -3.3607  -3.3189  -3.2160
    -3.0517  -2.9747  -2.6782  -1.4849  -0.6716   0.5009   2.0206   2.5560
     2.9218   3.4845   4.2210   4.6703

          k = 0.3750 0.3750 0.0000 ( 12670 PWs)   bands (ev):

   -46.4122 -45.5743 -44.6525 -44.6154  -4.2209  -4.2013  -4.1800  -4.1684
    -3.9571  -3.7566  -3.7254  -3.7225  -3.3218  -3.2702  -3.2193  -2.8432
    -2.7609  -2.6461  -2.4930  -0.5382   0.4266   1.6744   2.4162   3.1020
     3.5601   4.1115   4.7366   5.3365

          k = 0.3750-0.5000 0.0000 ( 12656 PWs)   bands (ev):

   -46.4115 -45.5735 -44.6517 -44.6146  -4.3208  -4.3008  -4.2896  -4.1807
    -3.9079  -3.8564  -3.8248  -3.7131  -3.3553  -3.2758  -3.1976  -2.6792
    -2.6470  -2.5077  -2.3071   0.7256   1.3239   1.7266   2.4049   3.1006
     3.3971   4.2821   4.7912   5.2805

          k = 0.3750-0.3750 0.0000 ( 12670 PWs)   bands (ev):

   -46.4122 -45.5743 -44.6525 -44.6154  -4.2209  -4.2013  -4.1800  -4.1684
    -3.9571  -3.7566  -3.7254  -3.7225  -3.3218  -3.2702  -3.2193  -2.8432
    -2.7609  -2.6461  -2.4930  -0.5382   0.4266   1.6744   2.4162   3.1020
     3.5601   4.1115   4.7366   5.3365

          k = 0.3750-0.2500 0.0000 ( 12622 PWs)   bands (ev):

   -46.4136 -45.5758 -44.6542 -44.6171  -4.2022  -4.0498  -3.9425  -3.9025
    -3.8759  -3.7500  -3.5714  -3.4881  -3.4266  -3.3607  -3.3189  -3.2160
    -3.0517  -2.9747  -2.6782  -1.4849  -0.6716   0.5009   2.0206   2.5560
     2.9218   3.4845   4.2210   4.6703

          k = 0.3750-0.1250 0.0000 ( 12609 PWs)   bands (ev):

   -46.4151 -45.5775 -44.6561 -44.6190  -4.2154  -4.1750  -4.0688  -3.9268
    -3.7954  -3.6379  -3.5515  -3.5155  -3.4806  -3.3848  -3.3014  -3.1336
    -3.1136  -2.8595  -2.7342  -1.9326  -1.2847  -0.2440   1.2447   2.0426
     2.2158   2.7797   3.6258   4.0879

          k =-0.5000 0.0000 0.0000 ( 12618 PWs)   bands (ev):

   -46.4151 -45.5775 -44.6561 -44.6190  -4.3338  -4.3206  -4.1170  -4.0887
    -3.8949  -3.7865  -3.4769  -3.4446  -3.3611  -3.3407  -3.2668  -3.0290
    -3.0067  -2.7553  -2.5607  -0.4488  -0.0673   0.0163   0.5114   0.9343
     0.9750   2.1737   2.7164   4.1047

          k =-0.5000 0.1250 0.0000 ( 12650 PWs)   bands (ev):

   -46.4145 -45.5769 -44.6554 -44.6183  -4.3167  -4.1366  -4.0315  -3.8854
    -3.8786  -3.6333  -3.6000  -3.5619  -3.4938  -3.4547  -3.2692  -3.2041
    -3.0893  -2.8455  -2.5361  -0.3506   0.1949   0.1992   0.8280   1.2266
     1.3542   2.4444   2.9817   4.2675

          k =-0.5000 0.2500 0.0000 ( 12660 PWs)   bands (ev):

   -46.4130 -45.5752 -44.6535 -44.6164  -4.3076  -4.0124  -4.0074  -3.9713
    -3.8787  -3.8459  -3.5607  -3.5599  -3.4044  -3.4033  -3.3185  -3.1842
    -3.0278  -2.8917  -2.4900  -0.0155   0.7315   0.7825   1.5784   1.9826
     2.2806   3.2221   3.7335   4.7291

          k =-0.5000 0.3750 0.0000 ( 12656 PWs)   bands (ev):

   -46.4115 -45.5735 -44.6517 -44.6146  -4.3208  -4.3008  -4.2896  -4.1807
    -3.9079  -3.8564  -3.8248  -3.7131  -3.3553  -3.2758  -3.1976  -2.6792
    -2.6470  -2.5077  -2.3071   0.7256   1.3239   1.7266   2.4049   3.1006
     3.3971   4.2821   4.7912   5.2805

          k =-0.5000-0.5000 0.0000 ( 12564 PWs)   bands (ev):

   -46.4106 -45.5725 -44.6506 -44.6135  -4.4339  -4.4143  -4.2936  -4.2936
    -3.9657  -3.8519  -3.8151  -3.8151  -3.3347  -3.3347  -3.1691  -2.5178
    -2.3894  -2.3614  -2.0918   1.5425   1.5425   2.7947   2.7947   3.8098
     4.1244   4.1244   4.4243   5.5075

     the Fermi energy is     1.0763 ev

!    total energy              =    -312.37031004 Ry
     estimated scf accuracy    <          9.5E-10 Ry
     smearing contrib. (-TS)   =       0.00026156 Ry
     internal energy E=F+TS    =    -312.37057160 Ry

     The total energy is F=E-TS. E is the sum of the following terms:
     one-electron contribution =   -2704.65820827 Ry
     hartree contribution      =    1370.60344557 Ry
     xc contribution           =     -81.42540757 Ry
     ewald contribution        =    1103.22286055 Ry
     DFT-D3 Dispersion         =      -0.11326189 Ry

     convergence has been achieved in   8 iterations

     negative rho (up, down):  7.008E-06 0.000E+00

     Forces acting on atoms (cartesian axes, Ry/au):

     atom    1 type  1   force =    -0.00000003   -0.00000012    0.00091656
     atom    2 type  1   force =    -0.00000011   -0.00000000    0.00038971
     atom    3 type  1   force =    -0.00000012    0.00000007   -0.00026774
     atom    4 type  2   force =    -0.00000005   -0.00000014    0.00018854
     atom    5 type  2   force =     0.00000020    0.00000008    0.00014130
     atom    6 type  2   force =    -0.00000011   -0.00000010   -0.00091702
     atom    7 type  2   force =     0.00000023    0.00000021   -0.00045136
     The non-local contrib.  to forces
     atom    1 type  1   force =     0.00000015    0.00000001    0.07387022
     atom    2 type  1   force =    -0.00000011    0.00000003   -0.00610283
     atom    3 type  1   force =    -0.00000004    0.00000001    0.02360698
     atom    4 type  2   force =    -0.00000499   -0.00000504   -0.00052306
     atom    5 type  2   force =    -0.00000533   -0.00000540    0.00013280
     atom    6 type  2   force =    -0.00000703   -0.00000705   -0.05838520
     atom    7 type  2   force =     0.00001315    0.00001316    0.03204793
     The ionic contribution  to forces
     atom    1 type  1   force =    -0.00000369   -0.00000298   71.39992884
     atom    2 type  1   force =    -0.00000205    0.00000016    0.67455283
     atom    3 type  1   force =    -0.00000076    0.00000097  -71.51668058
     atom    4 type  2   force =     0.00000167   -0.00000096   10.17217098
     atom    5 type  2   force =     0.00000317    0.00000038   -9.59398579
     atom    6 type  2   force =    -0.00000175   -0.00000131  -27.64515150
     atom    7 type  2   force =     0.00000341    0.00000373   26.50916520
     The local contribution  to forces
     atom    1 type  1   force =     0.00000357    0.00000278  -71.46610084
     atom    2 type  1   force =     0.00000203   -0.00000016   -0.66727187
     atom    3 type  1   force =     0.00000057   -0.00000083   71.48799277
     atom    4 type  2   force =     0.00000331    0.00000585  -10.17033983
     atom    5 type  2   force =     0.00000238    0.00000510    9.59269737
     atom    6 type  2   force =     0.00000862    0.00000822   27.70033486
     atom    7 type  2   force =    -0.00001628   -0.00001661  -26.53912241
     The core correction contribution to forces
     atom    1 type  1   force =     0.00000002    0.00000002   -0.00281002
     atom    2 type  1   force =     0.00000001    0.00000000   -0.00030503
     atom    3 type  1   force =     0.00000001   -0.00000000    0.00028720
     atom    4 type  2   force =     0.00000000    0.00000000    0.00000000
     atom    5 type  2   force =     0.00000000    0.00000000    0.00000000
     atom    6 type  2   force =     0.00000000    0.00000000    0.00000000
     atom    7 type  2   force =     0.00000000    0.00000000    0.00000000
     The Hubbard contrib.    to forces
     atom    1 type  1   force =     0.00000000    0.00000000    0.00000000
     atom    2 type  1   force =     0.00000000    0.00000000    0.00000000
     atom    3 type  1   force =     0.00000000    0.00000000    0.00000000
     atom    4 type  2   force =     0.00000000    0.00000000    0.00000000
     atom    5 type  2   force =     0.00000000    0.00000000    0.00000000
     atom    6 type  2   force =     0.00000000    0.00000000    0.00000000
     atom    7 type  2   force =     0.00000000    0.00000000    0.00000000
     The SCF correction term to forces
     atom    1 type  1   force =    -0.00000007    0.00000006   -0.00006475
     atom    2 type  1   force =     0.00000003   -0.00000002    0.00000560
     atom    3 type  1   force =     0.00000011   -0.00000005    0.00002465
     atom    4 type  2   force =    -0.00000002    0.00000003    0.00000464
     atom    5 type  2   force =    -0.00000000    0.00000002    0.00003222
     atom    6 type  2   force =     0.00000006    0.00000006    0.00000056
     atom    7 type  2   force =    -0.00000001   -0.00000002   -0.00000668

     DFT-D3 dispersion contribution to forces:
     atom    1 type  1   force =     0.00000001    0.00000002   -0.00390614
     atom    2 type  1   force =    -0.00000000    0.00000000   -0.00048822
     atom    3 type  1   force =     0.00000001    0.00000000    0.00450199
     atom    4 type  2   force =    -0.00000000    0.00000000   -0.00112344
     atom    5 type  2   force =    -0.00000000   -0.00000000    0.00126546
     atom    6 type  2   force =     0.00000000    0.00000000    0.00228501
     atom    7 type  2   force =    -0.00000002   -0.00000002   -0.00253465

     Total force =     0.001471     Total SCF correction =     0.000077


     Computing stress (Cartesian axis) and pressure


     negative rho (up, down):  7.008E-06 0.000E+00
          total   stress  (Ry/bohr**3)                   (kbar)     P=      -11.73
  -0.00009701   0.00000000   0.00000000          -14.27        0.00        0.00
   0.00000000  -0.00009701   0.00000000            0.00      -14.27        0.00
   0.00000000   0.00000000  -0.00004519            0.00        0.00       -6.65

     Energy error            =      1.1E-05 Ry
     Gradient error          =      9.2E-04 Ry/Bohr

     bfgs converged in  20 scf cycles and  19 bfgs steps
     (criteria: energy <  1.0E-04 Ry, force <  1.0E-03 Ry/Bohr)

     End of BFGS Geometry Optimization

     Final energy             =    -312.3703100422 Ry

     File ./LiAg_mp-2426_100_ontop_0/LiAg_mp-2426_100_ontop_0.bfgs deleted, as requested
Begin final coordinates

ATOMIC_POSITIONS (angstrom)
Ag            0.7806784205        0.7806822461       17.6345791393
Ag            0.7806811268        0.7806833581       14.6074939306
Ag            0.7806851202        0.7806840474       11.5565690119
Li            2.3420492365        2.3420532944       16.1618164718
Li            2.3420520771        2.3420537098       13.0821153673
Li            2.3420567257        2.3420552577       10.0084667811
Li            0.7806883319        0.7806931040       20.1712387446
End final coordinates



     Writing all to output data dir ./LiAg_mp-2426_100_ontop_0/LiAg_mp-2426_100_ontop_0.save/

     init_run     :      1.21s CPU      1.87s WALL (       1 calls)
     electrons    :     30.57s CPU     38.48s WALL (      20 calls)
     update_pot   :      2.96s CPU      3.10s WALL (      19 calls)
     forces       :      2.52s CPU      3.04s WALL (      20 calls)
     force_dftd3  :      0.17s CPU      0.30s WALL (      20 calls)
     stress       :      7.16s CPU      7.46s WALL (      20 calls)
     stres_dftd3  :      0.17s CPU      0.29s WALL (      20 calls)

     Called by init_run:
     wfcinit      :      0.18s CPU      0.32s WALL (       1 calls)
     potinit      :      0.41s CPU      0.65s WALL (       1 calls)
     hinit0       :      0.50s CPU      0.67s WALL (       1 calls)

     Called by electrons:
     c_bands      :     23.29s CPU     26.93s WALL (     166 calls)
     sum_band     :      4.21s CPU      5.13s WALL (     166 calls)
     v_of_rho     :      1.31s CPU      2.45s WALL (     177 calls)
     newd         :      0.87s CPU      1.20s WALL (     177 calls)
     mix_rho      :      0.16s CPU      0.29s WALL (     166 calls)
     energy_dftd3 :      0.04s CPU      0.04s WALL (      20 calls)

     Called by c_bands:
     init_us_2    :      0.22s CPU      0.24s WALL (    3357 calls)
     init_us_2:cp :      0.21s CPU      0.24s WALL (    3357 calls)
     cegterg      :     21.41s CPU     23.10s WALL (    1494 calls)

     Called by *egterg:
     cdiaghg      :      5.42s CPU      5.56s WALL (    5435 calls)
     h_psi        :     13.49s CPU     14.85s WALL (    5696 calls)
     s_psi        :      0.45s CPU      0.49s WALL (    5696 calls)
     g_psi        :      0.05s CPU      0.06s WALL (    4193 calls)

     Called by h_psi:
     h_psi:calbec :      1.17s CPU      1.48s WALL (    5696 calls)
     vloc_psi     :     11.82s CPU     12.82s WALL (    5696 calls)
     add_vuspsi   :      0.46s CPU      0.50s WALL (    5696 calls)

     General routines
     calbec       :      1.85s CPU      2.29s WALL (    8090 calls)
     fft          :      2.16s CPU      3.88s WALL (    2789 calls)
     ffts         :      0.47s CPU      0.76s WALL (     343 calls)
     fftw         :     12.88s CPU     13.98s WALL (  251992 calls)
     interpolate  :      0.45s CPU      0.76s WALL (     177 calls)

     Parallel routines

     PWSCF        :     45.05s CPU     56.11s WALL


   This run was terminated on:   7:22: 0   6Aug2025            

=------------------------------------------------------------------------------=
   JOB DONE.
=------------------------------------------------------------------------------=
