
     Program PWSCF v.7.2 starts on  6Aug2025 at  7:26:28 

     This program is part of the open-source Quantum ESPRESSO suite
     for quantum simulation of materials; please cite
         "P. Giannozzi et al., J. Phys.:Condens. Matter 21 395502 (2009);
         "P. Giannozzi et al., J. Phys.:Condens. Matter 29 465901 (2017);
         "P. Giannozzi et al., J. Chem. Phys. 152 154105 (2020);
          URL http://www.quantum-espresso.org", 
     in publications or presentations arising from this work. More details at
     http://www.quantum-espresso.org/quote

     Parallel version (MPI & OpenMP), running on     256 processor cores
     Number of MPI processes:               256
     Threads/MPI process:                     1

     MPI processes distributed on     4 nodes
     243144 MiB available memory on the printing compute node when the environment starts

     Reading input from LiAg_mp-2426_110_ontop_0.in

     Current dimensions of program PWSCF are:
     Max number of different atomic species (ntypx) = 10
     Max number of k-points (npk) =  40000
     Max angular momentum in pseudopotentials (lmaxx) =  4
     Message from routine iosys:
     restart disabled: needed files not found

     K-points division:     npool     =       4
     R & G space division:  proc/nbgrp/npool/nimage =      64
     Subspace diagonalization in iterative solution of the eigenvalue problem:
     a serial algorithm will be used


     Parallelization info
     --------------------
     sticks:   dense  smooth     PW     G-vecs:    dense   smooth      PW
     Min          30      13      4                 8502     2473     376
     Max          31      14      5                 8541     2518     416
     Sum        1961     865    259               545233   159021   25681

     Using Slab Decomposition



     bravais-lattice index     =            0
     lattice parameter (alat)  =       5.9011  a.u.
     unit-cell volume          =    2888.7690 (a.u.)^3
     number of atoms/cell      =           13
     number of atomic types    =            2
     number of electrons       =        87.00
     number of Kohn-Sham states=           53
     kinetic-energy cutoff     =      55.0000  Ry
     charge density cutoff     =     500.0000  Ry
     scf convergence threshold =      1.0E-06
     mixing beta               =       0.3000
     number of iterations used =            8  plain     mixing
     energy convergence thresh.=      1.0E-04
     force convergence thresh. =      1.0E-03
     Exchange-correlation= PBE
                           (   1   4   3   4   0   0   0)
     nstep                     =          500


     celldm(1)=   5.901124  celldm(2)=   0.000000  celldm(3)=   0.000000
     celldm(4)=   0.000000  celldm(5)=   0.000000  celldm(6)=   0.000000

     crystal axes: (cart. coord. in units of alat)
               a(1) = (   1.000000   0.000000   0.000000 )  
               a(2) = (   0.000000   1.414214  -0.000000 )  
               a(3) = (   0.000000   0.000000   9.940165 )  

     reciprocal axes: (cart. coord. in units 2 pi/alat)
               b(1) = (  1.000000 -0.000000  0.000000 )  
               b(2) = (  0.000000  0.707107  0.000000 )  
               b(3) = ( -0.000000  0.000000  0.100602 )  


     PseudoPot. # 1 for Ag read from file:
     /home/ecastro/trabajo_final/pseudos/Ag.pbe-n-rrkjus_psl.1.0.0.UPF
     MD5 check sum: 81cdf87bacf708300839c66ee23ce017
     Pseudo is Ultrasoft + core correction, Zval = 11.0
     Generated using &quot;atomic&quot; code by A. Dal Corso  v.6.2.2
     Using radial grid of 1237 points,  6 beta functions with: 
                l(1) =   0
                l(2) =   0
                l(3) =   1
                l(4) =   1
                l(5) =   2
                l(6) =   2
     Q(r) pseudized with 0 coefficients 


     PseudoPot. # 2 for Li read from file:
     /home/ecastro/trabajo_final/pseudos/Li.pbe-s-rrkjus_psl.1.0.0.UPF
     MD5 check sum: 9f98d2529904d60b716d33989e9bc179
     Pseudo is Ultrasoft, Zval =  3.0
     Generated using &quot;atomic&quot; code by A. Dal Corso  v.6.3MaX
     Using radial grid of 1017 points,  4 beta functions with: 
                l(1) =   0
                l(2) =   0
                l(3) =   1
                l(4) =   1
     Q(r) pseudized with 0 coefficients 


     atomic species   valence    mass     pseudopotential
        Ag            11.00   107.86820     Ag( 1.00)
        Li             3.00     6.94100     Li( 1.00)

     No symmetry found



   Cartesian axes

     site n.     atom                  positions (alat units)
         1           Ag  tau(   1) = (   0.2499994   0.3535541   6.6750602  )
         2           Ag  tau(   2) = (   0.2499991   1.0606601   6.0303046  )
         3           Ag  tau(   3) = (   0.2500000   0.3535534   5.3236359  )
         4           Ag  tau(   4) = (   0.2500000   1.0606602   4.6165291  )
         5           Ag  tau(   5) = (   0.2500000   0.3535534   3.9094224  )
         6           Ag  tau(   6) = (   0.2500000   1.0606602   3.2023156  )
         7           Li  tau(   7) = (   0.7499996   1.0606612   6.7841830  )
         8           Li  tau(   8) = (   0.7499996   0.3535528   6.0076941  )
         9           Li  tau(   9) = (   0.7500000   1.0606602   5.3236359  )
        10           Li  tau(  10) = (   0.7500000   0.3535534   4.6165291  )
        11           Li  tau(  11) = (   0.7500000   1.0606602   3.9094224  )
        12           Li  tau(  12) = (   0.7500000   0.3535534   3.2023156  )
        13           Li  tau(  13) = (   0.2499994   0.3535541   7.4246461  )

     --------------------------------------------
     DFT-D3 Dispersion Correction (no 3-body):
     --------------------------------------------
       Reference C6 values for interpolation: 

         atom   Coordination number   C6
         Li         0.000          2326.89
         Li         0.987           170.64
         Ag         0.000           853.49
         Ag         0.968           537.23

       Values used:

         atom   Coordination number  R0_AB[au]  C6      C8
         Ag         8.854            3.147    537.23  47741.54
         Ag        10.342            3.147    537.23  47741.54
         Ag        10.198            3.147    537.23  47741.54
         Ag        10.144            3.147    537.23  47741.54
         Ag        10.124            3.147    537.23  47741.54
         Ag         7.371            3.147    537.23  47741.54
         Li         8.749            3.303    170.64  12899.87
         Li        11.063            3.303    170.64  12899.87
         Li        11.350            3.303    170.64  12899.87
         Li        11.222            3.303    170.64  12899.87
         Li        11.194            3.303    170.64  12899.87
         Li         8.083            3.303    170.64  12899.87
         Li         3.607            3.303    170.64  12899.87

         Molecular C6 ( Ry / a.u.^6 ) =     52003.73


     number of k points=    34  Methfessel-Paxton smearing, width (Ry)=  0.0300
                       cart. coord. in units 2pi/alat
        k(    1) = (   0.0000000   0.0000000   0.0000000), wk =   0.0312500
        k(    2) = (   0.0000000   0.0883883   0.0000000), wk =   0.0625000
        k(    3) = (   0.0000000   0.1767767   0.0000000), wk =   0.0625000
        k(    4) = (   0.0000000   0.2651650   0.0000000), wk =   0.0625000
        k(    5) = (   0.0000000  -0.3535534   0.0000000), wk =   0.0312500
        k(    6) = (   0.1250000  -0.0000000   0.0000000), wk =   0.0625000
        k(    7) = (   0.1250000   0.0883883   0.0000000), wk =   0.0625000
        k(    8) = (   0.1250000   0.1767767   0.0000000), wk =   0.0625000
        k(    9) = (   0.1250000   0.2651650   0.0000000), wk =   0.0625000
        k(   10) = (   0.1250000  -0.3535534   0.0000000), wk =   0.0625000
        k(   11) = (   0.1250000  -0.2651650   0.0000000), wk =   0.0625000
        k(   12) = (   0.1250000  -0.1767767   0.0000000), wk =   0.0625000
        k(   13) = (   0.1250000  -0.0883883   0.0000000), wk =   0.0625000
        k(   14) = (   0.2500000  -0.0000000   0.0000000), wk =   0.0625000
        k(   15) = (   0.2500000   0.0883883   0.0000000), wk =   0.0625000
        k(   16) = (   0.2500000   0.1767767   0.0000000), wk =   0.0625000
        k(   17) = (   0.2500000   0.2651650   0.0000000), wk =   0.0625000
        k(   18) = (   0.2500000  -0.3535534   0.0000000), wk =   0.0625000
        k(   19) = (   0.2500000  -0.2651650   0.0000000), wk =   0.0625000
        k(   20) = (   0.2500000  -0.1767767   0.0000000), wk =   0.0625000
        k(   21) = (   0.2500000  -0.0883883   0.0000000), wk =   0.0625000
        k(   22) = (   0.3750000  -0.0000000   0.0000000), wk =   0.0625000
        k(   23) = (   0.3750000   0.0883883   0.0000000), wk =   0.0625000
        k(   24) = (   0.3750000   0.1767767   0.0000000), wk =   0.0625000
        k(   25) = (   0.3750000   0.2651650   0.0000000), wk =   0.0625000
        k(   26) = (   0.3750000  -0.3535534   0.0000000), wk =   0.0625000
        k(   27) = (   0.3750000  -0.2651650   0.0000000), wk =   0.0625000
        k(   28) = (   0.3750000  -0.1767767   0.0000000), wk =   0.0625000
        k(   29) = (   0.3750000  -0.0883883   0.0000000), wk =   0.0625000
        k(   30) = (  -0.5000000   0.0000000   0.0000000), wk =   0.0312500
        k(   31) = (  -0.5000000   0.0883883   0.0000000), wk =   0.0625000
        k(   32) = (  -0.5000000   0.1767767   0.0000000), wk =   0.0625000
        k(   33) = (  -0.5000000   0.2651650   0.0000000), wk =   0.0625000
        k(   34) = (  -0.5000000  -0.3535534   0.0000000), wk =   0.0312500

     Dense  grid:   545233 G-vectors     FFT dimensions: (  45,  60, 432)

     Smooth grid:   159021 G-vectors     FFT dimensions: (  27,  40, 288)

     Estimated max dynamical RAM per process >      18.66 MB

     Estimated total dynamical RAM >       4.28 GB
     Cannot read rho : file not found

     Initial potential from superposition of free atoms

     starting charge      86.9653, renormalised to      87.0000

     negative rho (up, down):  4.908E-05 0.000E+00
     Message from routine qexsd_readschema :
     xml data file ./LiAg_mp-2426_110_ontop_0/LiAg_mp-2426_110_ontop_0.save/data-file
     Cannot read wfcs: file not found
     Starting wfcs are   89 randomized atomic wfcs

     total cpu time spent up to now is        7.5 secs

     per-process dynamical memory:   177.4 Mb

     Self-consistent Calculation

     iteration #  1     ecut=    55.00 Ry     beta= 0.30
     Davidson diagonalization with overlap
     c_bands:  1 eigenvalues not converged
     c_bands:  1 eigenvalues not converged
     ethr =  1.00E-05,  avg # of iterations = 17.2

     negative rho (up, down):  4.077E-05 0.000E+00

     total cpu time spent up to now is       10.3 secs

     total energy              =    -609.45542445 Ry
     estimated scf accuracy    <       1.36210268 Ry

     iteration #  2     ecut=    55.00 Ry     beta= 0.30
     Davidson diagonalization with overlap
     ethr =  1.57E-03,  avg # of iterations =  8.4

     negative rho (up, down):  5.299E-05 0.000E+00

     total cpu time spent up to now is       11.4 secs

     total energy              =    -607.45658860 Ry
     estimated scf accuracy    <      58.03935972 Ry

     iteration #  3     ecut=    55.00 Ry     beta= 0.30
     Davidson diagonalization with overlap
     ethr =  1.57E-03,  avg # of iterations =  6.1

     negative rho (up, down):  5.405E-05 0.000E+00

     total cpu time spent up to now is       12.3 secs

     total energy              =    -609.70022428 Ry
     estimated scf accuracy    <       9.60258817 Ry

     iteration #  4     ecut=    55.00 Ry     beta= 0.30
     Davidson diagonalization with overlap
     ethr =  1.57E-03,  avg # of iterations =  2.5

     negative rho (up, down):  1.832E-05 0.000E+00

     total cpu time spent up to now is       12.9 secs

     total energy              =    -609.93993062 Ry
     estimated scf accuracy    <       0.93686192 Ry

     iteration #  5     ecut=    55.00 Ry     beta= 0.30
     Davidson diagonalization with overlap
     ethr =  1.08E-03,  avg # of iterations =  1.7

     negative rho (up, down):  7.085E-06 0.000E+00

     total cpu time spent up to now is       13.4 secs

     total energy              =    -609.95277333 Ry
     estimated scf accuracy    <       0.18551365 Ry

     iteration #  6     ecut=    55.00 Ry     beta= 0.30
     Davidson diagonalization with overlap
     ethr =  2.13E-04,  avg # of iterations =  4.9

     negative rho (up, down):  1.589E-06 0.000E+00

     total cpu time spent up to now is       14.1 secs

     total energy              =    -609.94971084 Ry
     estimated scf accuracy    <       0.06807763 Ry

     iteration #  7     ecut=    55.00 Ry     beta= 0.30
     Davidson diagonalization with overlap
     ethr =  7.83E-05,  avg # of iterations =  9.1

     negative rho (up, down):  1.401E-06 0.000E+00

     total cpu time spent up to now is       15.0 secs

     total energy              =    -609.95133479 Ry
     estimated scf accuracy    <       0.01032328 Ry

     iteration #  8     ecut=    55.00 Ry     beta= 0.30
     Davidson diagonalization with overlap
     ethr =  1.19E-05,  avg # of iterations =  6.0

     negative rho (up, down):  1.077E-06 0.000E+00

     total cpu time spent up to now is       15.8 secs

     total energy              =    -609.95168771 Ry
     estimated scf accuracy    <       0.00205433 Ry

     iteration #  9     ecut=    55.00 Ry     beta= 0.30
     Davidson diagonalization with overlap
     ethr =  2.36E-06,  avg # of iterations =  7.8

     negative rho (up, down):  5.254E-06 0.000E+00

     total cpu time spent up to now is       16.7 secs

     total energy              =    -609.95187435 Ry
     estimated scf accuracy    <       0.00025037 Ry

     iteration # 10     ecut=    55.00 Ry     beta= 0.30
     Davidson diagonalization with overlap
     ethr =  2.88E-07,  avg # of iterations =  2.4

     negative rho (up, down):  1.151E-05 0.000E+00

     total cpu time spent up to now is       17.3 secs

     total energy              =    -609.95190823 Ry
     estimated scf accuracy    <       0.00007949 Ry

     iteration # 11     ecut=    55.00 Ry     beta= 0.30
     Davidson diagonalization with overlap
     ethr =  9.14E-08,  avg # of iterations =  2.5

     negative rho (up, down):  1.070E-05 0.000E+00

     total cpu time spent up to now is       17.8 secs

     total energy              =    -609.95191684 Ry
     estimated scf accuracy    <       0.00001633 Ry

     iteration # 12     ecut=    55.00 Ry     beta= 0.30
     Davidson diagonalization with overlap
     ethr =  1.88E-08,  avg # of iterations =  5.0

     negative rho (up, down):  1.530E-05 0.000E+00

     total cpu time spent up to now is       18.5 secs

     total energy              =    -609.95192037 Ry
     estimated scf accuracy    <       0.00000740 Ry

     iteration # 13     ecut=    55.00 Ry     beta= 0.30
     Davidson diagonalization with overlap
     ethr =  8.50E-09,  avg # of iterations =  3.5

     negative rho (up, down):  1.473E-05 0.000E+00

     total cpu time spent up to now is       19.2 secs

     End of self-consistent calculation

          k = 0.0000 0.0000 0.0000 ( 19753 PWs)   bands (ev):

   -45.6104 -44.4553 -44.1832 -43.9411 -43.8609 -43.8554 -43.8369  -4.2244
    -3.8403  -3.5898  -3.5371  -3.5322  -3.5102  -3.4026  -3.3613  -3.3541
    -3.3183  -3.1819  -3.1342  -3.0535  -3.0153  -2.9350  -2.5510  -2.4867
    -2.4866  -2.4519  -2.4245  -2.4168  -2.3708  -2.3076  -2.2245  -2.2240
    -2.1766  -2.1044  -2.1018  -2.0778  -2.0619  -2.0440  -1.9824  -1.6945
    -1.5557  -0.3590   0.7201   1.7594   2.2058   2.4380   2.9183   3.9796
     4.7219   5.1259   5.2036   5.3719   6.1313

          k = 0.0000 0.0884 0.0000 ( 19735 PWs)   bands (ev):

   -45.6103 -44.4552 -44.1832 -43.9410 -43.8607 -43.8554 -43.8369  -4.1336
    -3.8191  -3.5550  -3.5302  -3.5107  -3.4908  -3.3747  -3.3629  -3.3189
    -3.3011  -3.2016  -3.1514  -3.0195  -3.0014  -2.8816  -2.5989  -2.5242
    -2.4992  -2.4495  -2.4440  -2.3495  -2.3479  -2.3322  -2.2327  -2.2052
    -2.1985  -2.1829  -2.1428  -2.0916  -2.0728  -2.0406  -1.9751  -1.8339
    -1.3151  -0.1788   0.8518   1.4255   2.0778   2.2656   2.6564   3.3132
     4.4201   4.9200   5.3693   5.5092   5.7131

          k = 0.0000 0.1768 0.0000 ( 19834 PWs)   bands (ev):

   -45.6105 -44.4553 -44.1833 -43.9410 -43.8603 -43.8558 -43.8371  -3.9060
    -3.7565  -3.5612  -3.4758  -3.4537  -3.4022  -3.3502  -3.3230  -3.2896
    -3.2562  -3.1865  -3.1724  -2.9649  -2.8963  -2.8314  -2.5776  -2.5772
    -2.5420  -2.4816  -2.4653  -2.4188  -2.3611  -2.3502  -2.3337  -2.2732
    -2.2241  -2.2020  -2.1719  -2.0884  -2.0450  -2.0289  -1.9613  -1.7978
    -0.8336   0.1663   0.2449   1.0558   1.6193   1.9930   2.5962   2.9120
     3.3376   4.2192   5.2727   5.3267   5.7682

          k = 0.0000 0.2652 0.0000 ( 19874 PWs)   bands (ev):

   -45.6105 -44.4552 -44.1833 -43.9410 -43.8596 -43.8563 -43.8373  -3.6912
    -3.6696  -3.5589  -3.4571  -3.4146  -3.3841  -3.3385  -3.2960  -3.2517
    -3.2063  -3.1488  -3.0027  -2.9215  -2.8411  -2.7625  -2.6180  -2.6163
    -2.5799  -2.5386  -2.5127  -2.4902  -2.4462  -2.3677  -2.3488  -2.3345
    -2.2007  -2.1676  -2.0550  -2.0515  -2.0390  -2.0074  -1.9497  -1.2311
    -0.9204  -0.2632  -0.1622   0.9068   1.1453   1.9116   2.2285   2.9335
     3.2635   3.7407   4.2223   5.4210   5.8427

          k = 0.0000-0.3536 0.0000 ( 19864 PWs)   bands (ev):

   -45.6105 -44.4552 -44.1832 -43.9409 -43.8592 -43.8565 -43.8374  -3.6254
    -3.6135  -3.5085  -3.4950  -3.4368  -3.3635  -3.3543  -3.3127  -3.2163
    -3.2127  -3.0247  -2.9756  -2.8589  -2.8288  -2.7240  -2.6793  -2.6716
    -2.6331  -2.5942  -2.5264  -2.4991  -2.4932  -2.3668  -2.3610  -2.2099
    -2.1485  -2.0717  -2.0198  -2.0112  -1.9446  -1.9267  -1.8708  -1.2567
    -1.2253  -0.3751  -0.3099   0.8635   0.9179   2.0097   2.0195   2.9484
     3.0363   3.8916   4.2752   4.8206   5.4729

          k = 0.1250-0.0000 0.0000 ( 19806 PWs)   bands (ev):

   -45.6098 -44.4546 -44.1826 -43.9403 -43.8602 -43.8546 -43.8361  -4.0247
    -3.6123  -3.5542  -3.5113  -3.4125  -3.3671  -3.3296  -3.3208  -3.2701
    -3.1219  -3.0497  -3.0000  -2.9825  -2.9299  -2.9185  -2.6940  -2.6719
    -2.6462  -2.6126  -2.5362  -2.5076  -2.4428  -2.4032  -2.2852  -2.2572
    -2.1899  -2.1869  -2.1455  -2.1413  -2.0905  -2.0829  -2.0137  -1.6786
    -1.3213  -0.1022   1.0021   2.0649   2.6483   2.7584   3.3264   4.3466
     4.9322   5.3392   5.5293   5.5901   6.3506

          k = 0.1250 0.0884 0.0000 ( 19853 PWs)   bands (ev):

   -45.6098 -44.4546 -44.1826 -43.9404 -43.8601 -43.8547 -43.8362  -3.9291
    -3.6139  -3.5150  -3.4443  -3.3947  -3.3456  -3.3287  -3.2796  -3.2638
    -3.1264  -3.0121  -3.0095  -2.9813  -2.9407  -2.8744  -2.7166  -2.6898
    -2.6516  -2.6234  -2.5684  -2.4964  -2.4827  -2.3547  -2.2945  -2.2640
    -2.1954  -2.1679  -2.1550  -2.1352  -2.1152  -2.0774  -2.0553  -1.7964
    -1.1149   0.0579   1.1155   1.7484   2.4312   2.6305   2.9701   3.6072
     4.6603   5.1451   5.6052   5.7015   5.9245

          k = 0.1250 0.1768 0.0000 ( 19851 PWs)   bands (ev):

   -45.6098 -44.4545 -44.1825 -43.9403 -43.8595 -43.8550 -43.8364  -3.6979
    -3.5702  -3.3946  -3.3729  -3.3366  -3.3130  -3.2838  -3.2436  -3.1632
    -3.1414  -3.0557  -2.9851  -2.9482  -2.8876  -2.8255  -2.7527  -2.7234
    -2.6635  -2.6532  -2.5526  -2.5341  -2.4802  -2.3638  -2.3366  -2.2843
    -2.2460  -2.2215  -2.1735  -2.1566  -2.1204  -2.1017  -2.0600  -1.6604
    -0.6586   0.3726   0.5036   1.3119   1.9235   2.2583   2.8771   3.1902
     3.5672   4.3971   5.4578   5.5333   6.0033

          k = 0.1250 0.2652 0.0000 ( 19897 PWs)   bands (ev):

   -45.6098 -44.4545 -44.1825 -43.9402 -43.8588 -43.8556 -43.8366  -3.5281
    -3.4834  -3.3410  -3.3001  -3.2777  -3.2427  -3.2145  -3.1849  -3.1461
    -3.1184  -3.0227  -2.9879  -2.9067  -2.8410  -2.7840  -2.7722  -2.7378
    -2.6908  -2.6730  -2.6184  -2.5371  -2.4871  -2.4465  -2.4206  -2.3467
    -2.2618  -2.1997  -2.1524  -2.1304  -2.0869  -2.0456  -1.8748  -1.0811
    -0.6849  -0.0998  -0.0100   1.1344   1.3954   2.1088   2.4602   3.1464
     3.4780   4.0436   4.4224   5.6142   6.0813

          k = 0.1250-0.3536 0.0000 ( 19884 PWs)   bands (ev):

   -45.6098 -44.4545 -44.1825 -43.9402 -43.8584 -43.8558 -43.8366  -3.4829
    -3.4337  -3.2973  -3.2765  -3.2442  -3.2358  -3.2178  -3.2073  -3.1709
    -3.0391  -3.0050  -2.9569  -2.8522  -2.8314  -2.7992  -2.7743  -2.7347
    -2.7039  -2.6771  -2.6567  -2.6210  -2.5087  -2.4844  -2.4682  -2.3456
    -2.2480  -2.1707  -2.1031  -2.0946  -2.0386  -1.7120  -1.6574  -1.0991
    -1.0509  -0.2511  -0.1658   1.0957   1.1195   2.2116   2.2124   3.1870
     3.2216   4.1086   4.5548   5.1125   5.7062

          k = 0.1250-0.2652 0.0000 ( 19897 PWs)   bands (ev):

   -45.6098 -44.4545 -44.1825 -43.9402 -43.8588 -43.8556 -43.8366  -3.5281
    -3.4834  -3.3410  -3.3001  -3.2777  -3.2427  -3.2145  -3.1849  -3.1461
    -3.1184  -3.0227  -2.9879  -2.9067  -2.8410  -2.7840  -2.7722  -2.7378
    -2.6908  -2.6730  -2.6184  -2.5371  -2.4871  -2.4465  -2.4206  -2.3467
    -2.2618  -2.1997  -2.1524  -2.1304  -2.0869  -2.0456  -1.8748  -1.0811
    -0.6849  -0.0998  -0.0100   1.1344   1.3954   2.1088   2.4602   3.1464
     3.4780   4.0436   4.4224   5.6142   6.0817

          k = 0.1250-0.1768 0.0000 ( 19851 PWs)   bands (ev):

   -45.6098 -44.4545 -44.1825 -43.9403 -43.8595 -43.8550 -43.8364  -3.6979
    -3.5702  -3.3946  -3.3729  -3.3366  -3.3130  -3.2838  -3.2436  -3.1632
    -3.1414  -3.0557  -2.9851  -2.9482  -2.8876  -2.8255  -2.7527  -2.7234
    -2.6635  -2.6532  -2.5526  -2.5341  -2.4802  -2.3638  -2.3366  -2.2843
    -2.2460  -2.2215  -2.1735  -2.1566  -2.1204  -2.1017  -2.0600  -1.6604
    -0.6586   0.3726   0.5036   1.3119   1.9235   2.2583   2.8771   3.1902
     3.5672   4.3971   5.4576   5.5319   6.0029

          k = 0.1250-0.0884 0.0000 ( 19853 PWs)   bands (ev):

   -45.6098 -44.4546 -44.1826 -43.9404 -43.8601 -43.8547 -43.8362  -3.9291
    -3.6139  -3.5150  -3.4443  -3.3947  -3.3456  -3.3287  -3.2796  -3.2638
    -3.1264  -3.0121  -3.0095  -2.9813  -2.9407  -2.8744  -2.7166  -2.6898
    -2.6516  -2.6234  -2.5684  -2.4964  -2.4827  -2.3547  -2.2945  -2.2640
    -2.1954  -2.1679  -2.1550  -2.1352  -2.1152  -2.0774  -2.0553  -1.7964
    -1.1149   0.0579   1.1155   1.7484   2.4312   2.6305   2.9701   3.6072
     4.6603   5.1451   5.6052   5.7015   5.9244

          k = 0.2500-0.0000 0.0000 ( 19968 PWs)   bands (ev):

   -45.6084 -44.4530 -44.1810 -43.9386 -43.8585 -43.8529 -43.8344  -3.7467
    -3.5541  -3.4481  -3.3759  -3.3216  -3.2691  -3.1042  -3.0948  -3.0819
    -3.0065  -2.9924  -2.9824  -2.9580  -2.8999  -2.8503  -2.7782  -2.7740
    -2.6239  -2.5822  -2.5205  -2.4610  -2.4236  -2.4214  -2.3991  -2.3752
    -2.3437  -2.3010  -2.2712  -2.1535  -2.0689  -1.9634  -1.7037  -1.6534
    -0.6777   0.5929   1.7427   2.8379   3.6846   3.7847   4.4043   5.1182
     5.3431   5.3668   5.5930   5.8472   6.0448

          k = 0.2500 0.0884 0.0000 ( 19915 PWs)   bands (ev):

   -45.6083 -44.4528 -44.1809 -43.9385 -43.8582 -43.8529 -43.8344  -3.6653
    -3.4971  -3.4510  -3.3255  -3.2884  -3.2333  -3.1188  -3.0982  -3.0596
    -3.0372  -2.9726  -2.9549  -2.9326  -2.8878  -2.8505  -2.7903  -2.7548
    -2.6205  -2.5691  -2.5307  -2.4929  -2.4425  -2.4036  -2.3604  -2.3589
    -2.3177  -2.3022  -2.2647  -2.1600  -2.1075  -2.0354  -1.7751  -1.5786
    -0.5307   0.7157   1.8270   2.5633   3.3308   3.5415   3.8575   4.2973
     4.9827   5.1540   5.3346   5.7598   6.2786

          k = 0.2500 0.1768 0.0000 ( 19923 PWs)   bands (ev):

   -45.6083 -44.4528 -44.1808 -43.9384 -43.8576 -43.8533 -43.8345  -3.4961
    -3.4086  -3.3317  -3.2421  -3.2044  -3.1642  -3.1421  -3.0954  -3.0526
    -3.0462  -2.9473  -2.9304  -2.8801  -2.8586  -2.8244  -2.7826  -2.7240
    -2.6250  -2.5891  -2.5304  -2.5137  -2.4347  -2.4153  -2.3528  -2.3112
    -2.2869  -2.2680  -2.2395  -2.2119  -2.1906  -2.0269  -1.9680  -1.2328
    -0.1499   0.9510   1.2175   1.9933   2.6455   2.8832   3.5832   3.7191
     4.3280   4.5723   5.1943   5.9387   6.0931

          k = 0.2500 0.2652 0.0000 ( 19896 PWs)   bands (ev):

   -45.6082 -44.4527 -44.1807 -43.9383 -43.8569 -43.8537 -43.8346  -3.3758
    -3.3229  -3.1870  -3.1765  -3.1447  -3.1393  -3.1236  -3.0738  -3.0458
    -2.9796  -2.9361  -2.9163  -2.8560  -2.8274  -2.7666  -2.7065  -2.6884
    -2.6470  -2.5986  -2.5605  -2.5202  -2.4751  -2.4407  -2.4249  -2.3760
    -2.3490  -2.2847  -2.2723  -2.2652  -2.2448  -1.8365  -1.4419  -0.6488
    -0.0420   0.3460   0.4718   1.6860   1.9935   2.5760   3.0406   3.5745
     4.0644   4.6634   4.9467   5.6829   6.5850

          k = 0.2500-0.3536 0.0000 ( 19900 PWs)   bands (ev):

   -45.6082 -44.4527 -44.1807 -43.9383 -43.8565 -43.8539 -43.8347  -3.3332
    -3.2768  -3.1795  -3.1692  -3.1427  -3.1100  -3.0885  -3.0632  -3.0136
    -2.9792  -2.9285  -2.8899  -2.8006  -2.7872  -2.7186  -2.6732  -2.6572
    -2.6326  -2.6182  -2.6058  -2.5701  -2.5620  -2.4743  -2.4558  -2.4283
    -2.3735  -2.3518  -2.2851  -2.2697  -2.2361  -1.1394  -1.0774  -0.6399
    -0.5537   0.1165   0.2412   1.6123   1.6204   2.6710   2.7329   3.6949
     3.7619   4.5717   5.1343   5.9040   6.3358

          k = 0.2500-0.2652 0.0000 ( 19896 PWs)   bands (ev):

   -45.6082 -44.4527 -44.1807 -43.9383 -43.8569 -43.8537 -43.8346  -3.3758
    -3.3229  -3.1870  -3.1765  -3.1447  -3.1393  -3.1236  -3.0738  -3.0458
    -2.9796  -2.9361  -2.9163  -2.8560  -2.8274  -2.7666  -2.7065  -2.6884
    -2.6470  -2.5986  -2.5605  -2.5202  -2.4751  -2.4407  -2.4249  -2.3760
    -2.3490  -2.2847  -2.2723  -2.2652  -2.2448  -1.8365  -1.4419  -0.6488
    -0.0420   0.3460   0.4718   1.6860   1.9935   2.5760   3.0406   3.5745
     4.0644   4.6634   4.9467   5.6830   6.5854

          k = 0.2500-0.1768 0.0000 ( 19923 PWs)   bands (ev):

   -45.6083 -44.4528 -44.1808 -43.9384 -43.8576 -43.8533 -43.8345  -3.4961
    -3.4086  -3.3317  -3.2421  -3.2044  -3.1642  -3.1421  -3.0954  -3.0526
    -3.0462  -2.9473  -2.9304  -2.8801  -2.8586  -2.8244  -2.7826  -2.7240
    -2.6250  -2.5891  -2.5304  -2.5137  -2.4347  -2.4153  -2.3528  -2.3112
    -2.2869  -2.2680  -2.2395  -2.2119  -2.1906  -2.0269  -1.9680  -1.2328
    -0.1499   0.9510   1.2175   1.9933   2.6455   2.8832   3.5832   3.7191
     4.3280   4.5723   5.1943   5.9387   6.0929

          k = 0.2500-0.0884 0.0000 ( 19915 PWs)   bands (ev):

   -45.6083 -44.4528 -44.1809 -43.9385 -43.8582 -43.8529 -43.8344  -3.6653
    -3.4971  -3.4510  -3.3255  -3.2884  -3.2333  -3.1188  -3.0982  -3.0596
    -3.0372  -2.9726  -2.9549  -2.9326  -2.8878  -2.8505  -2.7903  -2.7548
    -2.6205  -2.5691  -2.5307  -2.4929  -2.4425  -2.4036  -2.3604  -2.3589
    -2.3177  -2.3022  -2.2647  -2.1600  -2.1075  -2.0354  -1.7751  -1.5786
    -0.5307   0.7157   1.8270   2.5633   3.3308   3.5415   3.8575   4.2973
     4.9827   5.1540   5.3346   5.7598   6.2786

          k = 0.3750-0.0000 0.0000 ( 19934 PWs)   bands (ev):

   -45.6067 -44.4510 -44.1791 -43.9366 -43.8564 -43.8509 -43.8323  -3.6319
    -3.5270  -3.4221  -3.4178  -3.3801  -3.3327  -3.3193  -3.2963  -3.2372
    -3.1937  -3.1631  -3.0970  -2.9896  -2.9239  -2.8801  -2.7998  -2.7888
    -2.6868  -2.6413  -2.5610  -2.5378  -2.4120  -2.3618  -2.1764  -2.1259
    -2.0389  -1.9295  -1.8883  -1.8036  -1.6338  -1.3295  -1.0251  -0.4464
     0.5048   1.7170   2.6804   2.7949   3.1286   3.6082   4.0460   4.5485
     5.0904   5.3216   5.4442   5.9091   6.2897

          k = 0.3750 0.0884 0.0000 ( 19943 PWs)   bands (ev):

   -45.6067 -44.4510 -44.1791 -43.9366 -43.8562 -43.8510 -43.8324  -3.5627
    -3.4649  -3.4269  -3.4192  -3.3747  -3.3228  -3.3056  -3.2775  -3.2136
    -3.1617  -3.1461  -3.1069  -2.9444  -2.9061  -2.8788  -2.7883  -2.7374
    -2.6811  -2.6208  -2.5567  -2.5161  -2.4705  -2.3231  -2.1975  -2.1639
    -2.0856  -1.9255  -1.8966  -1.8005  -1.6958  -1.2614  -0.9743  -0.3853
     0.5894   1.8036   2.7557   2.8709   3.1496   3.5466   3.8295   4.1747
     4.4062   4.5630   5.2224   5.8067   6.4904

          k = 0.3750 0.1768 0.0000 ( 19944 PWs)   bands (ev):

   -45.6067 -44.4510 -44.1790 -43.9366 -43.8557 -43.8514 -43.8326  -3.4456
    -3.4337  -3.4062  -3.3402  -3.3245  -3.3144  -3.2805  -3.1634  -3.1599
    -3.1252  -3.1081  -3.0710  -2.9066  -2.8565  -2.8115  -2.7470  -2.6917
    -2.6483  -2.5759  -2.5236  -2.4891  -2.4635  -2.3293  -2.2874  -2.2092
    -2.1777  -1.9936  -1.9065  -1.8192  -1.7794  -1.0468  -0.7839  -0.1686
     0.8393   1.9766   2.3763   2.8939   3.0439   3.1223   3.2000   3.4224
     3.5448   4.4086   5.5319   5.8187   5.9329

          k = 0.3750 0.2652 0.0000 ( 19919 PWs)   bands (ev):

   -45.6066 -44.4510 -44.1790 -43.9365 -43.8550 -43.8518 -43.8327  -3.4573
    -3.4448  -3.3456  -3.3359  -3.2724  -3.2193  -3.1699  -3.1297  -3.0982
    -3.0627  -3.0228  -2.9223  -2.8876  -2.8365  -2.7420  -2.6847  -2.6568
    -2.5938  -2.5857  -2.4996  -2.4608  -2.4457  -2.4035  -2.3476  -2.2810
    -2.2247  -1.9888  -1.9618  -1.8530  -1.8305  -0.6345  -0.3552   0.2764
     1.0916   1.2037   1.4305   2.2667   2.5661   2.8617   3.1794   3.4137
     3.7348   4.4500   5.2427   5.4250   6.0219

          k = 0.3750-0.3536 0.0000 ( 19954 PWs)   bands (ev):

   -45.6067 -44.4510 -44.1790 -43.9365 -43.8548 -43.8521 -43.8329  -3.4634
    -3.4485  -3.3527  -3.3370  -3.2187  -3.1730  -3.1568  -3.1431  -3.0484
    -3.0213  -2.9610  -2.8642  -2.8620  -2.7398  -2.7299  -2.7142  -2.6422
    -2.5725  -2.5608  -2.5584  -2.5331  -2.4740  -2.4175  -2.3843  -2.2351
    -2.1772  -2.0010  -1.9617  -1.8987  -1.8499   0.0362   0.0903   0.3427
     0.4488   0.8948   1.0628   2.0786   2.1492   2.9299   3.1048   3.7488
     3.8439   4.4446   4.8105   5.2502   5.9136

          k = 0.3750-0.2652 0.0000 ( 19919 PWs)   bands (ev):

   -45.6066 -44.4510 -44.1790 -43.9365 -43.8550 -43.8518 -43.8327  -3.4573
    -3.4448  -3.3456  -3.3359  -3.2724  -3.2193  -3.1699  -3.1297  -3.0982
    -3.0627  -3.0228  -2.9223  -2.8876  -2.8365  -2.7420  -2.6847  -2.6568
    -2.5938  -2.5857  -2.4996  -2.4608  -2.4457  -2.4035  -2.3476  -2.2810
    -2.2247  -1.9888  -1.9618  -1.8530  -1.8305  -0.6345  -0.3552   0.2764
     1.0916   1.2037   1.4305   2.2667   2.5661   2.8617   3.1794   3.4137
     3.7348   4.4499   5.2427   5.4250   6.0219

          k = 0.3750-0.1768 0.0000 ( 19944 PWs)   bands (ev):

   -45.6067 -44.4510 -44.1790 -43.9366 -43.8557 -43.8514 -43.8326  -3.4456
    -3.4337  -3.4062  -3.3402  -3.3245  -3.3144  -3.2805  -3.1634  -3.1599
    -3.1252  -3.1081  -3.0710  -2.9066  -2.8565  -2.8115  -2.7470  -2.6917
    -2.6483  -2.5759  -2.5236  -2.4891  -2.4635  -2.3293  -2.2874  -2.2092
    -2.1777  -1.9936  -1.9065  -1.8192  -1.7794  -1.0468  -0.7839  -0.1686
     0.8393   1.9766   2.3763   2.8939   3.0439   3.1223   3.2000   3.4224
     3.5448   4.4085   5.5319   5.8187   5.9328

          k = 0.3750-0.0884 0.0000 ( 19943 PWs)   bands (ev):

   -45.6067 -44.4510 -44.1791 -43.9366 -43.8562 -43.8510 -43.8324  -3.5627
    -3.4649  -3.4269  -3.4192  -3.3747  -3.3228  -3.3056  -3.2775  -3.2136
    -3.1617  -3.1461  -3.1069  -2.9444  -2.9061  -2.8788  -2.7883  -2.7374
    -2.6811  -2.6208  -2.5567  -2.5161  -2.4705  -2.3231  -2.1975  -2.1639
    -2.0856  -1.9255  -1.8966  -1.8005  -1.6958  -1.2614  -0.9743  -0.3853
     0.5894   1.8036   2.7557   2.8709   3.1496   3.5466   3.8295   4.1747
     4.4062   4.5630   5.2223   5.8069   6.4903

          k =-0.5000 0.0000 0.0000 ( 19974 PWs)   bands (ev):

   -45.6061 -44.4503 -44.1784 -43.9358 -43.8558 -43.8500 -43.8315  -3.6022
    -3.5407  -3.5329  -3.5102  -3.4189  -3.4076  -3.3510  -3.3225  -3.2459
    -3.1943  -3.1905  -3.1571  -2.9982  -2.9712  -2.9409  -2.8054  -2.7833
    -2.7627  -2.7387  -2.6399  -2.6154  -2.3600  -2.3505  -2.1536  -2.0516
    -1.9648  -1.9170  -1.6742  -1.6264  -1.5486   0.3375   0.5580   0.6756
     1.0432   1.1001   1.8192   1.8755   2.6924   3.1664   3.5492   4.6566
     4.6851   5.5139   5.8121   6.3040   6.5529

          k =-0.5000 0.0884 0.0000 ( 19948 PWs)   bands (ev):

   -45.6061 -44.4503 -44.1783 -43.9358 -43.8555 -43.8501 -43.8316  -3.5470
    -3.5357  -3.5348  -3.4414  -3.4263  -3.4110  -3.3419  -3.2654  -3.2439
    -3.1978  -3.1747  -3.1092  -2.9964  -2.9309  -2.9208  -2.7941  -2.7693
    -2.7145  -2.7026  -2.6349  -2.5909  -2.4540  -2.2770  -2.1515  -2.1136
    -2.0740  -1.8078  -1.7783  -1.5890  -1.5577   0.3725   0.5929   0.7917
     1.0896   1.1642   1.8238   1.9444   2.6608   3.2479   3.4864   4.4764
     4.7511   5.4145   5.4319   5.6341   6.0295

          k =-0.5000 0.1768 0.0000 ( 19956 PWs)   bands (ev):

   -45.6061 -44.4503 -44.1783 -43.9358 -43.8549 -43.8506 -43.8318  -3.5566
    -3.5452  -3.4372  -3.4248  -3.3793  -3.2896  -3.2599  -3.2404  -3.2113
    -3.1227  -3.0920  -3.0381  -2.9829  -2.9233  -2.8029  -2.7487  -2.7202
    -2.6577  -2.6457  -2.5965  -2.5485  -2.4622  -2.2904  -2.2512  -2.1799
    -2.1344  -1.9155  -1.7098  -1.6027  -1.5677   0.5040   0.7252   1.1278
     1.2471   1.3599   1.8453   2.1327   2.5433   3.2645   3.3103   3.7464
     3.9866   4.6133   4.7855   5.2261   5.3604

          k =-0.5000 0.2652 0.0000 ( 19924 PWs)   bands (ev):

   -45.6060 -44.4502 -44.1783 -43.9357 -43.8542 -43.8510 -43.8319  -3.5656
    -3.5558  -3.4453  -3.4371  -3.2507  -3.2342  -3.2109  -3.1755  -3.0765
    -3.0337  -2.9722  -2.9710  -2.9171  -2.9007  -2.7244  -2.6857  -2.6664
    -2.6453  -2.6384  -2.5314  -2.5202  -2.4766  -2.3830  -2.3271  -2.2427
    -2.1310  -1.8123  -1.7739  -1.6140  -1.5845   0.8107   1.0392   1.5625
     1.6450   1.6925   1.9105   2.2921   2.3455   2.3864   2.6399   2.8259
     3.2122   4.0774   4.6574   4.6878   5.2454

          k =-0.5000-0.3536 0.0000 ( 19904 PWs)   bands (ev):

   -45.6059 -44.4502 -44.1782 -43.9356 -43.8539 -43.8512 -43.8320  -3.5708
    -3.5583  -3.4544  -3.4361  -3.2358  -3.2328  -3.1704  -3.1275  -3.0054
    -2.9765  -2.9603  -2.9340  -2.8897  -2.7510  -2.7281  -2.7130  -2.7100
    -2.6115  -2.5540  -2.5447  -2.5432  -2.5402  -2.4880  -2.3658  -2.1353
    -2.0644  -1.8291  -1.7854  -1.6246  -1.5901   1.3786   1.4254   1.6253
     1.6648   1.9073   2.0402   2.1040   2.1060   2.1245   2.3198   2.3637
     2.5799   3.8823   4.4837   4.8345   5.3643

     the Fermi energy is     1.9262 ev

!    total energy              =    -609.95192067 Ry
     estimated scf accuracy    <       0.00000058 Ry
     smearing contrib. (-TS)   =      -0.00176357 Ry
     internal energy E=F+TS    =    -609.95015710 Ry

     The total energy is F=E-TS. E is the sum of the following terms:
     one-electron contribution =   -6075.04186614 Ry
     hartree contribution      =    3077.78865668 Ry
     xc contribution           =    -159.37119832 Ry
     ewald contribution        =    2546.90594145 Ry
     DFT-D3 Dispersion         =      -0.23169078 Ry

     convergence has been achieved in  13 iterations

     negative rho (up, down):  1.473E-05 0.000E+00

     Forces acting on atoms (cartesian axes, Ry/au):

     atom    1 type  1   force =    -0.00000126    0.00000033   -0.02023001
     atom    2 type  1   force =     0.00000039    0.00000273    0.00068258
     atom    3 type  1   force =    -0.00000024    0.00000008   -0.00384384
     atom    4 type  1   force =    -0.00000130    0.00000077    0.00130975
     atom    5 type  1   force =     0.00000076   -0.00000236    0.00405512
     atom    6 type  1   force =    -0.00000030    0.00000109    0.00932006
     atom    7 type  2   force =     0.00000068   -0.00000017    0.00383205
     atom    8 type  2   force =     0.00000045   -0.00000040   -0.00303771
     atom    9 type  2   force =     0.00000004   -0.00000039   -0.00073459
     atom   10 type  2   force =     0.00000003   -0.00000097   -0.00095977
     atom   11 type  2   force =     0.00000028   -0.00000029   -0.00368455
     atom   12 type  2   force =     0.00000033   -0.00000028   -0.00650389
     atom   13 type  2   force =     0.00000014   -0.00000013    0.01979481
     The non-local contrib.  to forces
     atom    1 type  1   force =    -0.00000068   -0.00000077    0.03664582
     atom    2 type  1   force =    -0.00000069    0.00000129   -0.01257940
     atom    3 type  1   force =     0.00000110    0.00000086    0.00251164
     atom    4 type  1   force =     0.00000002    0.00000069    0.00278188
     atom    5 type  1   force =     0.00000164   -0.00000291   -0.00224843
     atom    6 type  1   force =    -0.00000099    0.00000224   -0.05381279
     atom    7 type  2   force =    -0.00000667    0.00000012    0.02163284
     atom    8 type  2   force =    -0.00000546   -0.00000037    0.00026023
     atom    9 type  2   force =    -0.00000411   -0.00000041   -0.00042831
     atom   10 type  2   force =    -0.00000413   -0.00000075   -0.00190915
     atom   11 type  2   force =    -0.00000376    0.00000013   -0.00592954
     atom   12 type  2   force =    -0.00000456   -0.00000030   -0.03819768
     atom   13 type  2   force =     0.00001369    0.00000021    0.06657926
     The ionic contribution  to forces
     atom    1 type  1   force =     0.00000183   -0.00000321  102.84796015
     atom    2 type  1   force =     0.00000155    0.00000248   62.45198276
     atom    3 type  1   force =     0.00000085    0.00000110   17.23538517
     atom    4 type  1   force =     0.00000005   -0.00000005  -26.53107803
     atom    5 type  1   force =     0.00000000    0.00000000  -70.47929258
     atom    6 type  1   force =     0.00000000    0.00000000 -112.42074223
     atom    7 type  2   force =    -0.00000140   -0.00000250   30.40392833
     atom    8 type  2   force =    -0.00000121    0.00000231   16.47644477
     atom    9 type  2   force =    -0.00000170   -0.00000035    4.75208027
     atom   10 type  2   force =    -0.00000001    0.00000001   -7.24061604
     atom   11 type  2   force =    -0.00000000   -0.00000000  -19.17421368
     atom   12 type  2   force =    -0.00000000   -0.00000000  -31.36698943
     atom   13 type  2   force =     0.00000004    0.00000020   33.04515055
     The local contribution  to forces
     atom    1 type  1   force =     0.00000027    0.00000536 -102.90229966
     atom    2 type  1   force =    -0.00000015   -0.00000773  -62.43478270
     atom    3 type  1   force =    -0.00000096   -0.00000341  -17.24065829
     atom    4 type  1   force =     0.00000029   -0.00000100   26.52963382
     atom    5 type  1   force =    -0.00000060    0.00000477   70.48264355
     atom    6 type  1   force =     0.00000092   -0.00000063  112.47635480
     atom    7 type  2   force =     0.00000836    0.00000208  -30.41932495
     atom    8 type  2   force =     0.00000671   -0.00000090  -16.47796143
     atom    9 type  2   force =     0.00000579    0.00000068   -4.75189603
     atom   10 type  2   force =     0.00000369   -0.00000030    7.24140350
     atom   11 type  2   force =     0.00000401   -0.00000086   19.17482726
     atom   12 type  2   force =     0.00000484    0.00000006   31.39673094
     atom   13 type  2   force =    -0.00001362    0.00000011  -33.09096841
     The core correction contribution to forces
     atom    1 type  1   force =     0.00000007   -0.00000002    0.00206685
     atom    2 type  1   force =    -0.00000003   -0.00000018   -0.00062256
     atom    3 type  1   force =     0.00000007   -0.00000008    0.00068916
     atom    4 type  1   force =     0.00000005   -0.00000009   -0.00003115
     atom    5 type  1   force =    -0.00000003    0.00000013   -0.00020070
     atom    6 type  1   force =     0.00000001    0.00000002    0.00451922
     atom    7 type  2   force =     0.00000000    0.00000000    0.00000000
     atom    8 type  2   force =     0.00000000    0.00000000    0.00000000
     atom    9 type  2   force =     0.00000000    0.00000000    0.00000000
     atom   10 type  2   force =     0.00000000    0.00000000    0.00000000
     atom   11 type  2   force =     0.00000000    0.00000000    0.00000000
     atom   12 type  2   force =     0.00000000    0.00000000    0.00000000
     atom   13 type  2   force =     0.00000000    0.00000000    0.00000000
     The Hubbard contrib.    to forces
     atom    1 type  1   force =     0.00000000    0.00000000    0.00000000
     atom    2 type  1   force =     0.00000000    0.00000000    0.00000000
     atom    3 type  1   force =     0.00000000    0.00000000    0.00000000
     atom    4 type  1   force =     0.00000000    0.00000000    0.00000000
     atom    5 type  1   force =     0.00000000    0.00000000    0.00000000
     atom    6 type  1   force =     0.00000000    0.00000000    0.00000000
     atom    7 type  2   force =     0.00000000    0.00000000    0.00000000
     atom    8 type  2   force =     0.00000000    0.00000000    0.00000000
     atom    9 type  2   force =     0.00000000    0.00000000    0.00000000
     atom   10 type  2   force =     0.00000000    0.00000000    0.00000000
     atom   11 type  2   force =     0.00000000    0.00000000    0.00000000
     atom   12 type  2   force =     0.00000000    0.00000000    0.00000000
     atom   13 type  2   force =     0.00000000    0.00000000    0.00000000
     The SCF correction term to forces
     atom    1 type  1   force =    -0.00000276   -0.00000094   -0.00008669
     atom    2 type  1   force =    -0.00000027    0.00000699   -0.00115452
     atom    3 type  1   force =    -0.00000132    0.00000173   -0.00183153
     atom    4 type  1   force =    -0.00000172    0.00000135   -0.00060967
     atom    5 type  1   force =    -0.00000025   -0.00000423   -0.00052320
     atom    6 type  1   force =    -0.00000024   -0.00000043   -0.00076953
     atom    7 type  2   force =     0.00000038    0.00000024   -0.00003791
     atom    8 type  2   force =     0.00000040   -0.00000131   -0.00036315
     atom    9 type  2   force =     0.00000005   -0.00000019   -0.00042802
     atom   10 type  2   force =     0.00000049    0.00000017   -0.00019004
     atom   11 type  2   force =     0.00000002    0.00000056   -0.00015205
     atom   12 type  2   force =     0.00000005    0.00000007   -0.00027518
     atom   13 type  2   force =     0.00000004   -0.00000053    0.00051905

     DFT-D3 dispersion contribution to forces:
     atom    1 type  1   force =     0.00000000    0.00000001   -0.00455286
     atom    2 type  1   force =    -0.00000001   -0.00000001   -0.00219737
     atom    3 type  1   force =     0.00000001    0.00000000    0.00002362
     atom    4 type  1   force =     0.00000000   -0.00000000    0.00057653
     atom    5 type  1   force =    -0.00000000   -0.00000000    0.00364011
     atom    6 type  1   force =    -0.00000000   -0.00000000    0.00373421
     atom    7 type  2   force =     0.00000000    0.00000001   -0.00240264
     atom    8 type  2   force =     0.00000000   -0.00000001   -0.00145450
     atom    9 type  2   force =     0.00000000    0.00000000   -0.00009887
     atom   10 type  2   force =    -0.00000000   -0.00000000    0.00031559
     atom   11 type  2   force =     0.00000000    0.00000000    0.00174710
     atom   12 type  2   force =    -0.00000000    0.00000000    0.00219108
     atom   13 type  2   force =    -0.00000000   -0.00000000   -0.00152200

     Total force =     0.031664     Total SCF correction =     0.002579


     Computing stress (Cartesian axis) and pressure


     negative rho (up, down):  1.473E-05 0.000E+00
          total   stress  (Ry/bohr**3)                   (kbar)     P=      -11.32
  -0.00009006   0.00000000  -0.00000000          -13.25        0.00       -0.00
   0.00000000  -0.00010319  -0.00000000            0.00      -15.18       -0.00
  -0.00000000  -0.00000000  -0.00003759           -0.00       -0.00       -5.53


     BFGS Geometry Optimization
     Energy error            =      0.0E+00 Ry
     Gradient error          =      2.0E-02 Ry/Bohr

     number of scf cycles    =   1
     number of bfgs steps    =   0

     energy             new  =    -609.9519206709 Ry

     new trust radius        =       0.0202300135 bohr
     new conv_thr            =       0.0000010000 Ry


ATOMIC_POSITIONS (angstrom)
Ag            0.7806826780        1.1040579196       20.8337744166
Ag            0.7806825273        3.3121676391       18.8314365186
Ag            0.7806849564        1.1040554764       16.6222985159
Ag            0.7806843932        3.3121666999       14.4169148162
Ag            0.7806854872        1.1040541834       12.2102567380
Ag            0.7806849226        3.3121668714       10.0049319614
Li            2.3420544126        3.3121694129       21.1872697223
Li            2.3420541481        1.1040534589       18.7588612454
Li            2.3420552674        3.3121660898       16.6239438628
Li            2.3420552651        1.1040549170       14.4157138362
Li            2.3420553949        3.3121661401       12.2061610857
Li            2.3420554236        1.1040552834        9.9965582882
Li            0.7806834222        1.1040576760       23.1957168557



     Writing config-only to output data dir ./LiAg_mp-2426_110_ontop_0/LiAg_mp-2426_110_ontop_0.save/
     NEW-OLD atomic charge density approx. for the potential

     negative rho (up, down):  1.484E-05 0.000E+00

     total cpu time spent up to now is       21.0 secs

     per-process dynamical memory:   186.9 Mb

     Self-consistent Calculation

     iteration #  1     ecut=    55.00 Ry     beta= 0.30
     Davidson diagonalization with overlap
     ethr =  1.00E-06,  avg # of iterations =  4.1

     negative rho (up, down):  1.466E-05 0.000E+00

     total cpu time spent up to now is       22.0 secs

     total energy              =    -609.95245762 Ry
     estimated scf accuracy    <       0.00083044 Ry

     iteration #  2     ecut=    55.00 Ry     beta= 0.30
     Davidson diagonalization with overlap
     ethr =  9.55E-07,  avg # of iterations =  9.4

     negative rho (up, down):  1.650E-05 0.000E+00

     total cpu time spent up to now is       23.0 secs

     total energy              =    -609.94994978 Ry
     estimated scf accuracy    <       0.14580861 Ry

     iteration #  3     ecut=    55.00 Ry     beta= 0.30
     Davidson diagonalization with overlap
     ethr =  9.55E-07,  avg # of iterations =  9.1

     negative rho (up, down):  1.673E-05 0.000E+00

     total cpu time spent up to now is       23.8 secs

     total energy              =    -609.95285312 Ry
     estimated scf accuracy    <       0.00001585 Ry

     iteration #  4     ecut=    55.00 Ry     beta= 0.30
     Davidson diagonalization with overlap
     ethr =  1.82E-08,  avg # of iterations =  3.6

     negative rho (up, down):  1.689E-05 0.000E+00

     total cpu time spent up to now is       24.6 secs

     total energy              =    -609.95285597 Ry
     estimated scf accuracy    <       0.00001119 Ry

     iteration #  5     ecut=    55.00 Ry     beta= 0.30
     Davidson diagonalization with overlap
     ethr =  1.29E-08,  avg # of iterations =  1.6

     negative rho (up, down):  1.595E-05 0.000E+00

     total cpu time spent up to now is       25.1 secs

     total energy              =    -609.95285615 Ry
     estimated scf accuracy    <       0.00003184 Ry

     iteration #  6     ecut=    55.00 Ry     beta= 0.30
     Davidson diagonalization with overlap
     ethr =  1.29E-08,  avg # of iterations =  1.0

     negative rho (up, down):  1.554E-05 0.000E+00

     total cpu time spent up to now is       25.6 secs

     total energy              =    -609.95285760 Ry
     estimated scf accuracy    <       0.00000155 Ry

     iteration #  7     ecut=    55.00 Ry     beta= 0.30
     Davidson diagonalization with overlap
     ethr =  1.79E-09,  avg # of iterations =  2.0

     negative rho (up, down):  1.468E-05 0.000E+00

     total cpu time spent up to now is       26.1 secs

     End of self-consistent calculation

          k = 0.0000 0.0000 0.0000 ( 19753 PWs)   bands (ev):

   -45.6200 -44.4587 -44.1886 -43.9393 -43.8587 -43.8535 -43.8313  -4.2258
    -3.8418  -3.5897  -3.5382  -3.5333  -3.5101  -3.4031  -3.3619  -3.3554
    -3.3174  -3.1792  -3.1349  -3.0531  -3.0159  -2.9373  -2.5487  -2.4871
    -2.4836  -2.4495  -2.4170  -2.4151  -2.3696  -2.3073  -2.2231  -2.2226
    -2.1750  -2.1024  -2.1006  -2.0750  -2.0589  -2.0434  -1.9854  -1.6921
    -1.5523  -0.3566   0.7205   1.7595   2.2059   2.4347   2.9194   3.9828
     4.7294   5.1286   5.2108   5.3767   6.1350

          k = 0.0000 0.0884 0.0000 ( 19735 PWs)   bands (ev):

   -45.6199 -44.4586 -44.1885 -43.9392 -43.8585 -43.8535 -43.8313  -4.1349
    -3.8204  -3.5546  -3.5310  -3.5110  -3.4917  -3.3752  -3.3621  -3.3192
    -3.3022  -3.1986  -3.1524  -3.0206  -2.9998  -2.8840  -2.5947  -2.5232
    -2.4982  -2.4480  -2.4432  -2.3473  -2.3422  -2.3310  -2.2302  -2.2043
    -2.1974  -2.1808  -2.1410  -2.0906  -2.0697  -2.0400  -1.9779  -1.8313
    -1.3117  -0.1768   0.8520   1.4253   2.0779   2.2664   2.6530   3.3155
     4.4253   4.9300   5.3696   5.5056   5.7193

          k = 0.0000 0.1768 0.0000 ( 19834 PWs)   bands (ev):

   -45.6201 -44.4587 -44.1886 -43.9392 -43.8580 -43.8540 -43.8316  -3.9067
    -3.7573  -3.5613  -3.4766  -3.4529  -3.4015  -3.3496  -3.3237  -3.2900
    -3.2532  -3.1888  -3.1716  -2.9638  -2.8979  -2.8305  -2.5766  -2.5748
    -2.5418  -2.4811  -2.4641  -2.4178  -2.3596  -2.3444  -2.3329  -2.2737
    -2.2204  -2.2004  -2.1698  -2.0865  -2.0421  -2.0284  -1.9638  -1.7960
    -0.8300   0.1683   0.2453   1.0545   1.6185   1.9937   2.5964   2.9101
     3.3395   4.2154   5.2762   5.3306   5.7677

          k = 0.0000 0.2652 0.0000 ( 19874 PWs)   bands (ev):

   -45.6201 -44.4587 -44.1886 -43.9392 -43.8571 -43.8547 -43.8317  -3.6912
    -3.6700  -3.5583  -3.4549  -3.4150  -3.3839  -3.3358  -3.2964  -3.2529
    -3.2083  -3.1454  -3.0004  -2.9210  -2.8431  -2.7597  -2.6176  -2.6161
    -2.5800  -2.5380  -2.5123  -2.4894  -2.4474  -2.3668  -2.3474  -2.3305
    -2.1990  -2.1649  -2.0529  -2.0495  -2.0372  -2.0057  -1.9520  -1.2287
    -0.9189  -0.2611  -0.1602   0.9075   1.1429   1.9128   2.2283   2.9291
     3.2609   3.7383   4.2218   5.4225   5.8482

          k = 0.0000-0.3536 0.0000 ( 19864 PWs)   bands (ev):

   -45.6201 -44.4586 -44.1886 -43.9391 -43.8565 -43.8552 -43.8317  -3.6251
    -3.6141  -3.5080  -3.4936  -3.4317  -3.3634  -3.3551  -3.3135  -3.2178
    -3.2139  -3.0169  -2.9739  -2.8570  -2.8298  -2.7262  -2.6784  -2.6702
    -2.6328  -2.5945  -2.5260  -2.4987  -2.4961  -2.3660  -2.3600  -2.2070
    -2.1469  -2.0691  -2.0171  -2.0103  -1.9467  -1.9257  -1.8684  -1.2543
    -1.2235  -0.3725  -0.3097   0.8633   0.9212   2.0061   2.0184   2.9420
     3.0348   3.8898   4.2758   4.8213   5.4698

          k = 0.1250-0.0000 0.0000 ( 19806 PWs)   bands (ev):

   -45.6194 -44.4580 -44.1879 -43.9385 -43.8580 -43.8527 -43.8306  -4.0264
    -3.6138  -3.5553  -3.5124  -3.4125  -3.3674  -3.3310  -3.3211  -3.2704
    -3.1207  -3.0493  -3.0006  -2.9797  -2.9316  -2.9198  -2.6946  -2.6703
    -2.6466  -2.6093  -2.5329  -2.5041  -2.4357  -2.4041  -2.2834  -2.2534
    -2.1891  -2.1848  -2.1449  -2.1395  -2.0905  -2.0835  -2.0104  -1.6762
    -1.3176  -0.1002   1.0017   2.0645   2.6485   2.7558   3.3277   4.3500
     4.9384   5.3427   5.5356   5.5941   6.3539

          k = 0.1250 0.0884 0.0000 ( 19853 PWs)   bands (ev):

   -45.6194 -44.4581 -44.1880 -43.9386 -43.8579 -43.8528 -43.8307  -3.9307
    -3.6154  -3.5159  -3.4446  -3.3948  -3.3467  -3.3288  -3.2806  -3.2637
    -3.1254  -3.0114  -3.0086  -2.9793  -2.9422  -2.8768  -2.7165  -2.6890
    -2.6506  -2.6227  -2.5633  -2.4944  -2.4777  -2.3542  -2.2919  -2.2611
    -2.1945  -2.1654  -2.1536  -2.1338  -2.1117  -2.0799  -2.0539  -1.7939
    -1.1113   0.0597   1.1151   1.7481   2.4307   2.6317   2.9668   3.6096
     4.6649   5.1547   5.6054   5.6982   5.9304

          k = 0.1250 0.1768 0.0000 ( 19851 PWs)   bands (ev):

   -45.6194 -44.4580 -44.1879 -43.9385 -43.8572 -43.8532 -43.8308  -3.6991
    -3.5715  -3.3959  -3.3707  -3.3372  -3.3140  -3.2838  -3.2431  -3.1624
    -3.1408  -3.0526  -2.9873  -2.9474  -2.8890  -2.8250  -2.7525  -2.7229
    -2.6623  -2.6535  -2.5503  -2.5297  -2.4761  -2.3648  -2.3336  -2.2838
    -2.2456  -2.2174  -2.1722  -2.1549  -2.1165  -2.1004  -2.0621  -1.6587
    -0.6547   0.3748   0.5043   1.3099   1.9225   2.2595   2.8762   3.1900
     3.5679   4.3936   5.4569   5.5401   6.0027

          k = 0.1250 0.2652 0.0000 ( 19897 PWs)   bands (ev):

   -45.6195 -44.4580 -44.1879 -43.9384 -43.8563 -43.8540 -43.8310  -3.5286
    -3.4845  -3.3409  -3.2998  -3.2752  -3.2435  -3.2138  -3.1838  -3.1443
    -3.1157  -3.0256  -2.9858  -2.9064  -2.8426  -2.7838  -2.7718  -2.7354
    -2.6909  -2.6728  -2.6178  -2.5345  -2.4839  -2.4464  -2.4216  -2.3450
    -2.2600  -2.1976  -2.1500  -2.1286  -2.0846  -2.0476  -1.8730  -1.0787
    -0.6835  -0.0965  -0.0087   1.1350   1.3928   2.1104   2.4593   3.1422
     3.4751   4.0410   4.4215   5.6151   6.0874

          k = 0.1250-0.3536 0.0000 ( 19884 PWs)   bands (ev):

   -45.6194 -44.4579 -44.1879 -43.9384 -43.8557 -43.8544 -43.8310  -3.4829
    -3.4349  -3.2959  -3.2766  -3.2443  -3.2298  -3.2176  -3.2065  -3.1721
    -3.0420  -2.9985  -2.9556  -2.8505  -2.8325  -2.7985  -2.7748  -2.7347
    -2.7039  -2.6778  -2.6558  -2.6198  -2.5068  -2.4831  -2.4705  -2.3427
    -2.2465  -2.1685  -2.1005  -2.0936  -2.0403  -1.7109  -1.6555  -1.0967
    -1.0493  -0.2480  -0.1655   1.0955   1.1232   2.2092   2.2098   3.1807
     3.2196   4.1066   4.5553   5.1127   5.7030

          k = 0.1250-0.2652 0.0000 ( 19897 PWs)   bands (ev):

   -45.6195 -44.4580 -44.1879 -43.9384 -43.8563 -43.8540 -43.8310  -3.5286
    -3.4845  -3.3409  -3.2998  -3.2752  -3.2435  -3.2138  -3.1838  -3.1443
    -3.1157  -3.0256  -2.9858  -2.9064  -2.8426  -2.7838  -2.7718  -2.7354
    -2.6909  -2.6728  -2.6178  -2.5345  -2.4839  -2.4464  -2.4216  -2.3450
    -2.2600  -2.1976  -2.1500  -2.1286  -2.0846  -2.0476  -1.8730  -1.0787
    -0.6835  -0.0965  -0.0087   1.1350   1.3928   2.1104   2.4593   3.1422
     3.4751   4.0410   4.4215   5.6151   6.0874

          k = 0.1250-0.1768 0.0000 ( 19851 PWs)   bands (ev):

   -45.6194 -44.4580 -44.1879 -43.9385 -43.8572 -43.8532 -43.8308  -3.6991
    -3.5715  -3.3959  -3.3707  -3.3372  -3.3140  -3.2838  -3.2431  -3.1624
    -3.1408  -3.0526  -2.9873  -2.9474  -2.8890  -2.8250  -2.7525  -2.7229
    -2.6623  -2.6535  -2.5503  -2.5297  -2.4761  -2.3648  -2.3336  -2.2838
    -2.2456  -2.2174  -2.1722  -2.1549  -2.1165  -2.1004  -2.0621  -1.6587
    -0.6547   0.3748   0.5043   1.3099   1.9225   2.2595   2.8762   3.1900
     3.5679   4.3936   5.4569   5.5401   6.0027

          k = 0.1250-0.0884 0.0000 ( 19853 PWs)   bands (ev):

   -45.6194 -44.4581 -44.1880 -43.9386 -43.8579 -43.8528 -43.8307  -3.9307
    -3.6154  -3.5159  -3.4446  -3.3948  -3.3467  -3.3288  -3.2806  -3.2637
    -3.1254  -3.0114  -3.0086  -2.9793  -2.9422  -2.8768  -2.7165  -2.6890
    -2.6506  -2.6227  -2.5633  -2.4944  -2.4777  -2.3542  -2.2919  -2.2611
    -2.1945  -2.1654  -2.1536  -2.1338  -2.1117  -2.0799  -2.0539  -1.7939
    -1.1113   0.0597   1.1151   1.7481   2.4307   2.6317   2.9668   3.6096
     4.6649   5.1547   5.6054   5.6982   5.9304

          k = 0.2500-0.0000 0.0000 ( 19968 PWs)   bands (ev):

   -45.6180 -44.4564 -44.1864 -43.9368 -43.8563 -43.8510 -43.8289  -3.7486
    -3.5550  -3.4493  -3.3771  -3.3233  -3.2706  -3.1023  -3.0957  -3.0820
    -3.0073  -2.9916  -2.9815  -2.9594  -2.9003  -2.8500  -2.7785  -2.7710
    -2.6159  -2.5826  -2.5165  -2.4589  -2.4209  -2.4189  -2.3974  -2.3756
    -2.3401  -2.3021  -2.2716  -2.1505  -2.0673  -1.9600  -1.7027  -1.6509
    -0.6738   0.5943   1.7405   2.8367   3.6828   3.7851   4.4061   5.1187
     5.3467   5.3684   5.5948   5.8492   6.0495

          k = 0.2500 0.0884 0.0000 ( 19915 PWs)   bands (ev):

   -45.6179 -44.4563 -44.1862 -43.9367 -43.8559 -43.8510 -43.8288  -3.6672
    -3.4975  -3.4529  -3.3269  -3.2885  -3.2352  -3.1183  -3.0982  -3.0600
    -3.0364  -2.9740  -2.9551  -2.9315  -2.8868  -2.8509  -2.7906  -2.7518
    -2.6140  -2.5689  -2.5263  -2.4915  -2.4386  -2.4023  -2.3595  -2.3578
    -2.3151  -2.3027  -2.2646  -2.1580  -2.1064  -2.0317  -1.7727  -1.5774
    -0.5268   0.7171   1.8252   2.5629   3.3291   3.5432   3.8546   4.3000
     4.9861   5.1543   5.3348   5.7654   6.2787

          k = 0.2500 0.1768 0.0000 ( 19923 PWs)   bands (ev):

   -45.6179 -44.4563 -44.1862 -43.9366 -43.8553 -43.8515 -43.8289  -3.4978
    -3.4095  -3.3317  -3.2435  -3.2055  -3.1645  -3.1411  -3.0954  -3.0532
    -3.0456  -2.9477  -2.9308  -2.8795  -2.8581  -2.8227  -2.7818  -2.7215
    -2.6222  -2.5849  -2.5302  -2.5114  -2.4291  -2.4149  -2.3523  -2.3099
    -2.2865  -2.2683  -2.2380  -2.2105  -2.1891  -2.0236  -1.9670  -1.2317
    -0.1456   0.9534   1.2188   1.9896   2.6437   2.8851   3.5802   3.7225
     4.3258   4.5721   5.1938   5.9308   6.0992

          k = 0.2500 0.2652 0.0000 ( 19896 PWs)   bands (ev):

   -45.6178 -44.4562 -44.1861 -43.9365 -43.8544 -43.8521 -43.8290  -3.3767
    -3.3242  -3.1874  -3.1758  -3.1444  -3.1384  -3.1247  -3.0731  -3.0458
    -2.9776  -2.9357  -2.9170  -2.8567  -2.8264  -2.7649  -2.7046  -2.6862
    -2.6464  -2.5938  -2.5601  -2.5202  -2.4717  -2.4400  -2.4234  -2.3752
    -2.3484  -2.2850  -2.2703  -2.2624  -2.2453  -1.8349  -1.4409  -0.6469
    -0.0405   0.3507   0.4726   1.6863   1.9910   2.5788   3.0375   3.5721
     4.0612   4.6598   4.9448   5.6811   6.5889

          k = 0.2500-0.3536 0.0000 ( 19900 PWs)   bands (ev):

   -45.6178 -44.4562 -44.1861 -43.9365 -43.8538 -43.8525 -43.8291  -3.3332
    -3.2785  -3.1792  -3.1690  -3.1429  -3.1105  -3.0887  -3.0638  -3.0075
    -2.9795  -2.9278  -2.8888  -2.7996  -2.7883  -2.7159  -2.6720  -2.6572
    -2.6318  -2.6171  -2.6060  -2.5679  -2.5569  -2.4723  -2.4554  -2.4305
    -2.3728  -2.3495  -2.2831  -2.2681  -2.2363  -1.1385  -1.0763  -0.6373
    -0.5527   0.1201   0.2414   1.6122   1.6245   2.6684   2.7316   3.6913
     3.7556   4.5692   5.1335   5.9026   6.3345

          k = 0.2500-0.2652 0.0000 ( 19896 PWs)   bands (ev):

   -45.6178 -44.4562 -44.1861 -43.9365 -43.8544 -43.8521 -43.8290  -3.3767
    -3.3242  -3.1874  -3.1758  -3.1444  -3.1384  -3.1247  -3.0731  -3.0458
    -2.9776  -2.9357  -2.9170  -2.8567  -2.8264  -2.7649  -2.7046  -2.6862
    -2.6464  -2.5938  -2.5601  -2.5202  -2.4717  -2.4400  -2.4234  -2.3752
    -2.3484  -2.2850  -2.2703  -2.2624  -2.2453  -1.8349  -1.4409  -0.6469
    -0.0405   0.3507   0.4726   1.6863   1.9910   2.5788   3.0375   3.5721
     4.0612   4.6598   4.9447   5.6811   6.5889

          k = 0.2500-0.1768 0.0000 ( 19923 PWs)   bands (ev):

   -45.6179 -44.4563 -44.1862 -43.9366 -43.8553 -43.8515 -43.8289  -3.4978
    -3.4095  -3.3317  -3.2435  -3.2055  -3.1645  -3.1411  -3.0954  -3.0532
    -3.0456  -2.9477  -2.9308  -2.8795  -2.8581  -2.8227  -2.7818  -2.7215
    -2.6222  -2.5849  -2.5302  -2.5114  -2.4291  -2.4149  -2.3523  -2.3099
    -2.2865  -2.2683  -2.2380  -2.2105  -2.1891  -2.0236  -1.9670  -1.2317
    -0.1456   0.9534   1.2188   1.9896   2.6437   2.8851   3.5802   3.7225
     4.3258   4.5721   5.1938   5.9308   6.0992

          k = 0.2500-0.0884 0.0000 ( 19915 PWs)   bands (ev):

   -45.6179 -44.4563 -44.1862 -43.9367 -43.8559 -43.8510 -43.8288  -3.6672
    -3.4975  -3.4529  -3.3269  -3.2885  -3.2352  -3.1183  -3.0982  -3.0600
    -3.0364  -2.9740  -2.9551  -2.9315  -2.8868  -2.8509  -2.7906  -2.7518
    -2.6140  -2.5689  -2.5263  -2.4915  -2.4386  -2.4023  -2.3595  -2.3578
    -2.3151  -2.3027  -2.2646  -2.1580  -2.1064  -2.0317  -1.7727  -1.5774
    -0.5268   0.7171   1.8252   2.5629   3.3291   3.5432   3.8546   4.3000
     4.9861   5.1543   5.3348   5.7654   6.2787

          k = 0.3750-0.0000 0.0000 ( 19934 PWs)   bands (ev):

   -45.6164 -44.4545 -44.1844 -43.9348 -43.8542 -43.8489 -43.8268  -3.6338
    -3.5281  -3.4235  -3.4171  -3.3812  -3.3331  -3.3169  -3.2974  -3.2392
    -3.1950  -3.1611  -3.0979  -2.9883  -2.9222  -2.8770  -2.8010  -2.7898
    -2.6858  -2.6383  -2.5582  -2.5390  -2.4024  -2.3589  -2.1740  -2.1234
    -2.0378  -1.9259  -1.8862  -1.8028  -1.6312  -1.3294  -1.0249  -0.4457
     0.5081   1.7174   2.6812   2.7924   3.1268   3.6084   4.0435   4.5527
     5.0889   5.3220   5.4422   5.9114   6.2890

          k = 0.3750 0.0884 0.0000 ( 19943 PWs)   bands (ev):

   -45.6164 -44.4545 -44.1844 -43.9348 -43.8540 -43.8491 -43.8268  -3.5645
    -3.4657  -3.4278  -3.4188  -3.3761  -3.3228  -3.3042  -3.2783  -3.2141
    -3.1622  -3.1469  -3.1066  -2.9432  -2.9044  -2.8758  -2.7883  -2.7391
    -2.6796  -2.6181  -2.5547  -2.5161  -2.4648  -2.3166  -2.1964  -2.1610
    -2.0844  -1.9222  -1.8950  -1.7993  -1.6936  -1.2611  -0.9740  -0.3847
     0.5928   1.8041   2.7566   2.8689   3.1483   3.5472   3.8289   4.1772
     4.4069   4.5602   5.2202   5.8031   6.4887

          k = 0.3750 0.1768 0.0000 ( 19944 PWs)   bands (ev):

   -45.6163 -44.4545 -44.1844 -43.9348 -43.8533 -43.8496 -43.8270  -3.4457
    -3.4342  -3.4081  -3.3408  -3.3233  -3.3149  -3.2812  -3.1646  -3.1594
    -3.1251  -3.1089  -3.0707  -2.9043  -2.8537  -2.8094  -2.7476  -2.6910
    -2.6464  -2.5740  -2.5220  -2.4870  -2.4615  -2.3283  -2.2814  -2.2086
    -2.1767  -1.9907  -1.9041  -1.8179  -1.7781  -1.0463  -0.7835  -0.1680
     0.8431   1.9788   2.3778   2.8929   3.0437   3.1252   3.2020   3.4204
     3.5409   4.4054   5.5317   5.8183   5.9212

          k = 0.3750 0.2652 0.0000 ( 19919 PWs)   bands (ev):

   -45.6162 -44.4544 -44.1844 -43.9347 -43.8525 -43.8502 -43.8271  -3.4572
    -3.4455  -3.3457  -3.3363  -3.2737  -3.2204  -3.1702  -3.1292  -3.0986
    -3.0595  -3.0237  -2.9198  -2.8852  -2.8338  -2.7412  -2.6854  -2.6549
    -2.5923  -2.5831  -2.4984  -2.4581  -2.4457  -2.4047  -2.3491  -2.2771
    -2.2219  -1.9851  -1.9605  -1.8507  -1.8306  -0.6339  -0.3545   0.2776
     1.0933   1.2078   1.4317   2.2675   2.5664   2.8632   3.1815   3.4144
     3.7293   4.4468   5.2302   5.4255   6.0209

          k = 0.3750-0.3536 0.0000 ( 19954 PWs)   bands (ev):

   -45.6163 -44.4545 -44.1844 -43.9347 -43.8521 -43.8507 -43.8272  -3.4632
    -3.4494  -3.3525  -3.3380  -3.2186  -3.1749  -3.1573  -3.1436  -3.0477
    -3.0224  -2.9517  -2.8616  -2.8601  -2.7410  -2.7277  -2.7143  -2.6397
    -2.5713  -2.5626  -2.5566  -2.5317  -2.4722  -2.4165  -2.3875  -2.2322
    -2.1752  -1.9974  -1.9593  -1.8968  -1.8503   0.0369   0.0911   0.3449
     0.4494   0.8986   1.0624   2.0797   2.1530   2.9296   3.1073   3.7485
     3.8446   4.4351   4.8008   5.2488   5.9113

          k = 0.3750-0.2652 0.0000 ( 19919 PWs)   bands (ev):

   -45.6162 -44.4544 -44.1844 -43.9347 -43.8525 -43.8502 -43.8271  -3.4572
    -3.4455  -3.3457  -3.3363  -3.2737  -3.2204  -3.1702  -3.1292  -3.0986
    -3.0595  -3.0237  -2.9198  -2.8852  -2.8338  -2.7412  -2.6854  -2.6549
    -2.5923  -2.5831  -2.4984  -2.4581  -2.4457  -2.4047  -2.3491  -2.2771
    -2.2219  -1.9851  -1.9605  -1.8507  -1.8306  -0.6339  -0.3545   0.2776
     1.0933   1.2078   1.4317   2.2675   2.5664   2.8632   3.1815   3.4144
     3.7293   4.4468   5.2302   5.4255   6.0209

          k = 0.3750-0.1768 0.0000 ( 19944 PWs)   bands (ev):

   -45.6163 -44.4545 -44.1844 -43.9348 -43.8533 -43.8496 -43.8270  -3.4457
    -3.4342  -3.4081  -3.3408  -3.3233  -3.3149  -3.2812  -3.1646  -3.1594
    -3.1251  -3.1089  -3.0707  -2.9043  -2.8537  -2.8094  -2.7476  -2.6910
    -2.6464  -2.5740  -2.5220  -2.4870  -2.4615  -2.3283  -2.2814  -2.2086
    -2.1767  -1.9907  -1.9041  -1.8179  -1.7781  -1.0463  -0.7835  -0.1680
     0.8431   1.9788   2.3778   2.8929   3.0437   3.1252   3.2020   3.4204
     3.5409   4.4054   5.5317   5.8186   5.9212

          k = 0.3750-0.0884 0.0000 ( 19943 PWs)   bands (ev):

   -45.6164 -44.4545 -44.1844 -43.9348 -43.8540 -43.8491 -43.8268  -3.5645
    -3.4657  -3.4278  -3.4188  -3.3761  -3.3228  -3.3042  -3.2783  -3.2141
    -3.1622  -3.1469  -3.1066  -2.9432  -2.9044  -2.8758  -2.7883  -2.7391
    -2.6796  -2.6181  -2.5547  -2.5161  -2.4648  -2.3166  -2.1964  -2.1610
    -2.0844  -1.9222  -1.8950  -1.7993  -1.6936  -1.2611  -0.9740  -0.3847
     0.5928   1.8041   2.7566   2.8689   3.1483   3.5472   3.8289   4.1772
     4.4069   4.5602   5.2202   5.8032   6.4887

          k =-0.5000 0.0000 0.0000 ( 19974 PWs)   bands (ev):

   -45.6158 -44.4538 -44.1837 -43.9340 -43.8536 -43.8481 -43.8260  -3.6041
    -3.5419  -3.5321  -3.5114  -3.4161  -3.4087  -3.3523  -3.3231  -3.2432
    -3.1965  -3.1910  -3.1586  -2.9962  -2.9702  -2.9390  -2.8058  -2.7844
    -2.7618  -2.7354  -2.6369  -2.6166  -2.3502  -2.3477  -2.1516  -2.0490
    -1.9633  -1.9134  -1.6719  -1.6238  -1.5475   0.3375   0.5586   0.6763
     1.0441   1.1013   1.8214   1.8763   2.6934   3.1654   3.5415   4.6555
     4.6835   5.5096   5.8152   6.3049   6.5525

          k =-0.5000 0.0884 0.0000 ( 19948 PWs)   bands (ev):

   -45.6157 -44.4537 -44.1837 -43.9340 -43.8532 -43.8482 -43.8260  -3.5479
    -3.5375  -3.5344  -3.4423  -3.4263  -3.4096  -3.3434  -3.2660  -3.2430
    -3.1969  -3.1756  -3.1112  -2.9951  -2.9285  -2.9196  -2.7937  -2.7676
    -2.7161  -2.6997  -2.6329  -2.5911  -2.4485  -2.2696  -2.1513  -2.1097
    -2.0729  -1.8048  -1.7757  -1.5867  -1.5569   0.3726   0.5935   0.7927
     1.0903   1.1656   1.8260   1.9453   2.6630   3.2467   3.4801   4.4741
     4.7486   5.4147   5.4298   5.6326   6.0318

          k =-0.5000 0.1768 0.0000 ( 19956 PWs)   bands (ev):

   -45.6157 -44.4537 -44.1837 -43.9340 -43.8526 -43.8488 -43.8262  -3.5569
    -3.5455  -3.4379  -3.4237  -3.3814  -3.2890  -3.2615  -3.2393  -3.2113
    -3.1240  -3.0920  -3.0386  -2.9809  -2.9214  -2.8005  -2.7457  -2.7201
    -2.6555  -2.6463  -2.5947  -2.5478  -2.4586  -2.2898  -2.2453  -2.1794
    -2.1324  -1.9126  -1.7065  -1.6017  -1.5663   0.5040   0.7255   1.1297
     1.2477   1.3623   1.8475   2.1339   2.5469   3.2638   3.3090   3.7451
     3.9861   4.6138   4.7740   5.2252   5.3606

          k =-0.5000 0.2652 0.0000 ( 19924 PWs)   bands (ev):

   -45.6156 -44.4537 -44.1836 -43.9339 -43.8517 -43.8494 -43.8263  -3.5656
    -3.5565  -3.4453  -3.4376  -3.2512  -3.2357  -3.2101  -3.1767  -3.0750
    -3.0323  -2.9731  -2.9700  -2.9134  -2.8979  -2.7239  -2.6833  -2.6640
    -2.6467  -2.6359  -2.5283  -2.5204  -2.4750  -2.3843  -2.3288  -2.2385
    -2.1284  -1.8078  -1.7730  -1.6119  -1.5838   0.8105   1.0391   1.5628
     1.6505   1.6948   1.9127   2.2933   2.3487   2.3861   2.6392   2.8283
     3.2146   4.0783   4.6571   4.6664   5.2467

          k =-0.5000-0.3536 0.0000 ( 19904 PWs)   bands (ev):

   -45.6155 -44.4536 -44.1836 -43.9338 -43.8512 -43.8499 -43.8263  -3.5707
    -3.5592  -3.4542  -3.4371  -3.2362  -3.2329  -3.1703  -3.1297  -3.0044
    -2.9732  -2.9597  -2.9275  -2.8883  -2.7510  -2.7291  -2.7109  -2.7063
    -2.6100  -2.5529  -2.5460  -2.5427  -2.5382  -2.4868  -2.3690  -2.1324
    -2.0626  -1.8253  -1.7834  -1.6221  -1.5899   1.3778   1.4250   1.6244
     1.6642   1.9166   2.0435   2.1077   2.1084   2.1239   2.3219   2.3676
     2.5774   3.8840   4.4848   4.8102   5.3617

     the Fermi energy is     1.9266 ev

!    total energy              =    -609.95285770 Ry
     estimated scf accuracy    <       0.00000029 Ry
     smearing contrib. (-TS)   =      -0.00175992 Ry
     internal energy E=F+TS    =    -609.95109778 Ry

     The total energy is F=E-TS. E is the sum of the following terms:
     one-electron contribution =   -6079.98915430 Ry
     hartree contribution      =    3080.25867989 Ry
     xc contribution           =    -159.37017215 Ry
     ewald contribution        =    2549.38132500 Ry
     DFT-D3 Dispersion         =      -0.23177621 Ry

     convergence has been achieved in   7 iterations

     negative rho (up, down):  1.468E-05 0.000E+00

     Forces acting on atoms (cartesian axes, Ry/au):

     atom    1 type  1   force =    -0.00000046    0.00000228   -0.01719392
     atom    2 type  1   force =     0.00000034   -0.00000051    0.00051889
     atom    3 type  1   force =    -0.00000001    0.00000030   -0.00340610
     atom    4 type  1   force =     0.00000008   -0.00000023    0.00137473
     atom    5 type  1   force =     0.00000038    0.00000005    0.00357545
     atom    6 type  1   force =    -0.00000017   -0.00000072    0.00896970
     atom    7 type  2   force =     0.00000003   -0.00000021    0.00381981
     atom    8 type  2   force =    -0.00000012   -0.00000004   -0.00366753
     atom    9 type  2   force =    -0.00000012   -0.00000008   -0.00056192
     atom   10 type  2   force =     0.00000013   -0.00000002   -0.00086419
     atom   11 type  2   force =     0.00000005   -0.00000027   -0.00318722
     atom   12 type  2   force =     0.00000010   -0.00000018   -0.00621224
     atom   13 type  2   force =    -0.00000023   -0.00000036    0.01683454
     The non-local contrib.  to forces
     atom    1 type  1   force =     0.00000001    0.00000221    0.03322613
     atom    2 type  1   force =    -0.00000075   -0.00000025   -0.01300019
     atom    3 type  1   force =     0.00000048    0.00000096    0.00295580
     atom    4 type  1   force =    -0.00000090   -0.00000059    0.00314885
     atom    5 type  1   force =     0.00000006    0.00000025   -0.00186914
     atom    6 type  1   force =    -0.00000084   -0.00000005   -0.05296235
     atom    7 type  2   force =    -0.00000699   -0.00000002    0.02185310
     atom    8 type  2   force =    -0.00000551    0.00000020   -0.00006071
     atom    9 type  2   force =    -0.00000416    0.00000010   -0.00022116
     atom   10 type  2   force =    -0.00000402    0.00000007   -0.00183016
     atom   11 type  2   force =    -0.00000416   -0.00000006   -0.00564641
     atom   12 type  2   force =    -0.00000503   -0.00000007   -0.03825337
     atom   13 type  2   force =     0.00001384   -0.00000020    0.06534187
     The ionic contribution  to forces
     atom    1 type  1   force =     0.00000269    0.00000269  102.93176387
     atom    2 type  1   force =     0.00000253   -0.00001356   62.50402737
     atom    3 type  1   force =     0.00000155    0.00000771   17.23421917
     atom    4 type  1   force =     0.00000083   -0.00001092  -26.53789570
     atom    5 type  1   force =     0.00000037    0.00001619  -70.50418840
     atom    6 type  1   force =     0.00000027   -0.00000948 -112.45152609
     atom    7 type  2   force =    -0.00000270   -0.00000262   30.45909105
     atom    8 type  2   force =    -0.00000229    0.00000887   16.46639363
     atom    9 type  2   force =    -0.00000223   -0.00000157    4.76277048
     atom   10 type  2   force =    -0.00000075    0.00000455   -7.24675740
     atom   11 type  2   force =    -0.00000040   -0.00000617  -19.18762030
     atom   12 type  2   force =    -0.00000028    0.00000428  -31.40012799
     atom   13 type  2   force =     0.00000041    0.00000003   32.96985031
     The local contribution  to forces
     atom    1 type  1   force =    -0.00000297   -0.00000466 -102.97807056
     atom    2 type  1   force =    -0.00000206    0.00001306  -62.48790335
     atom    3 type  1   force =    -0.00000324   -0.00000769  -17.24188466
     atom    4 type  1   force =    -0.00000086    0.00001136   26.53472257
     atom    5 type  1   force =    -0.00000073   -0.00001665   70.50668167
     atom    6 type  1   force =     0.00000104    0.00001018  112.50578292
     atom    7 type  2   force =     0.00000969    0.00000257  -30.47448653
     atom    8 type  2   force =     0.00000769   -0.00000897  -16.46846922
     atom    9 type  2   force =     0.00000631    0.00000142   -4.76316709
     atom   10 type  2   force =     0.00000494   -0.00000451    7.24718963
     atom   11 type  2   force =     0.00000459    0.00000621   19.18841038
     atom   12 type  2   force =     0.00000521   -0.00000421   31.43013647
     atom   13 type  2   force =    -0.00001453    0.00000024  -33.01679904
     The core correction contribution to forces
     atom    1 type  1   force =    -0.00000001   -0.00000015    0.00160015
     atom    2 type  1   force =    -0.00000005   -0.00000002   -0.00058029
     atom    3 type  1   force =    -0.00000005   -0.00000001    0.00065359
     atom    4 type  1   force =    -0.00000006    0.00000005    0.00000074
     atom    5 type  1   force =    -0.00000002   -0.00000006   -0.00013201
     atom    6 type  1   force =     0.00000004    0.00000010    0.00455052
     atom    7 type  2   force =     0.00000000    0.00000000    0.00000000
     atom    8 type  2   force =     0.00000000    0.00000000    0.00000000
     atom    9 type  2   force =     0.00000000    0.00000000    0.00000000
     atom   10 type  2   force =     0.00000000    0.00000000    0.00000000
     atom   11 type  2   force =     0.00000000    0.00000000    0.00000000
     atom   12 type  2   force =     0.00000000    0.00000000    0.00000000
     atom   13 type  2   force =     0.00000000    0.00000000    0.00000000
     The Hubbard contrib.    to forces
     atom    1 type  1   force =     0.00000000    0.00000000    0.00000000
     atom    2 type  1   force =     0.00000000    0.00000000    0.00000000
     atom    3 type  1   force =     0.00000000    0.00000000    0.00000000
     atom    4 type  1   force =     0.00000000    0.00000000    0.00000000
     atom    5 type  1   force =     0.00000000    0.00000000    0.00000000
     atom    6 type  1   force =     0.00000000    0.00000000    0.00000000
     atom    7 type  2   force =     0.00000000    0.00000000    0.00000000
     atom    8 type  2   force =     0.00000000    0.00000000    0.00000000
     atom    9 type  2   force =     0.00000000    0.00000000    0.00000000
     atom   10 type  2   force =     0.00000000    0.00000000    0.00000000
     atom   11 type  2   force =     0.00000000    0.00000000    0.00000000
     atom   12 type  2   force =     0.00000000    0.00000000    0.00000000
     atom   13 type  2   force =     0.00000000    0.00000000    0.00000000
     The SCF correction term to forces
     atom    1 type  1   force =    -0.00000028    0.00000234   -0.00114922
     atom    2 type  1   force =     0.00000058    0.00000040    0.00012150
     atom    3 type  1   force =     0.00000114   -0.00000052    0.00062414
     atom    4 type  1   force =     0.00000099    0.00000000    0.00079749
     atom    5 type  1   force =     0.00000060    0.00000048   -0.00058706
     atom    6 type  1   force =    -0.00000078   -0.00000134   -0.00065469
     atom    7 type  2   force =    -0.00000006    0.00000002   -0.00025689
     atom    8 type  2   force =    -0.00000010    0.00000001   -0.00009200
     atom    9 type  2   force =    -0.00000015    0.00000012    0.00013507
     atom   10 type  2   force =    -0.00000014    0.00000001    0.00019933
     atom   11 type  2   force =    -0.00000007   -0.00000010   -0.00009062
     atom   12 type  2   force =     0.00000011   -0.00000004   -0.00017004
     atom   13 type  2   force =    -0.00000004   -0.00000029   -0.00004450

     DFT-D3 dispersion contribution to forces:
     atom    1 type  1   force =    -0.00000000    0.00000000   -0.00458347
     atom    2 type  1   force =    -0.00000001    0.00000000   -0.00216534
     atom    3 type  1   force =     0.00000001   -0.00000000    0.00000668
     atom    4 type  1   force =    -0.00000001    0.00000001    0.00058159
     atom    5 type  1   force =     0.00000001   -0.00000001    0.00365121
     atom    6 type  1   force =    -0.00000000    0.00000001    0.00376021
     atom    7 type  2   force =     0.00000000    0.00000001   -0.00240010
     atom    8 type  2   force =     0.00000000   -0.00000001   -0.00145841
     atom    9 type  2   force =     0.00000000   -0.00000000   -0.00009840
     atom   10 type  2   force =     0.00000000   -0.00000000    0.00031523
     atom   11 type  2   force =     0.00000000    0.00000000    0.00174055
     atom   12 type  2   force =     0.00000000   -0.00000000    0.00218352
     atom   13 type  2   force =    -0.00000000   -0.00000000   -0.00153327

     Total force =     0.027639     Total SCF correction =     0.001818


     Computing stress (Cartesian axis) and pressure


     negative rho (up, down):  1.468E-05 0.000E+00
          total   stress  (Ry/bohr**3)                   (kbar)     P=      -11.41
  -0.00008921  -0.00000000   0.00000000          -13.12       -0.00        0.00
  -0.00000000  -0.00010318   0.00000000           -0.00      -15.18        0.00
   0.00000000   0.00000000  -0.00004023            0.00        0.00       -5.92

     Energy error            =      9.4E-04 Ry
     Gradient error          =      1.7E-02 Ry/Bohr

     number of scf cycles    =   2
     number of bfgs steps    =   1

     energy             old  =    -609.9519206709 Ry
     energy             new  =    -609.9528577019 Ry

     CASE: energy            _new < energy            _old


     WARNING: bfgs curvature condition failed, Theta= 0.918
     new trust radius        =       0.0222530148 bohr
     new conv_thr            =       0.0000000937 Ry


ATOMIC_POSITIONS (angstrom)
Ag            0.7806823072        1.1040593081       20.8219986284
Ag            0.7806827608        3.3121675351       18.8317972111
Ag            0.7806849343        1.1040556613       16.6199778206
Ag            0.7806843470        3.3121666160       14.4178336376
Ag            0.7806857694        1.1040540374       12.2126943042
Ag            0.7806847994        3.3121665224       10.0109841291
Li            2.3420544786        3.3121692777       21.1898369775
Li            2.3420541090        1.1040534045       18.7564436742
Li            2.3420551986        3.3121660134       16.6235535985
Li            2.3420553444        1.1040548340       14.4151261759
Li            2.3420554481        3.3121659542       12.2039830494
Li            2.3420555072        1.1040551526        9.9923630558
Li            0.7806832947        1.1040574512       23.2072456006



     Writing config-only to output data dir ./LiAg_mp-2426_110_ontop_0/LiAg_mp-2426_110_ontop_0.save/
     NEW-OLD atomic charge density approx. for the potential

     negative rho (up, down):  1.475E-05 0.000E+00

     total cpu time spent up to now is       27.8 secs

     per-process dynamical memory:   215.0 Mb

     Self-consistent Calculation

     iteration #  1     ecut=    55.00 Ry     beta= 0.30
     Davidson diagonalization with overlap
     ethr =  1.00E-06,  avg # of iterations =  4.3

     Threshold (ethr) on eigenvalues was too large:
     Diagonalizing with lowered threshold

     Davidson diagonalization with overlap
     ethr =  8.69E-08,  avg # of iterations =  3.6

     negative rho (up, down):  1.459E-05 0.000E+00

     total cpu time spent up to now is       29.5 secs

     total energy              =    -609.95373022 Ry
     estimated scf accuracy    <       0.00008621 Ry

     iteration #  2     ecut=    55.00 Ry     beta= 0.30
     Davidson diagonalization with overlap
     ethr =  9.91E-08,  avg # of iterations =  2.6

     negative rho (up, down):  1.661E-05 0.000E+00

     total cpu time spent up to now is       30.0 secs

     total energy              =    -609.95363524 Ry
     estimated scf accuracy    <       0.00403263 Ry

     iteration #  3     ecut=    55.00 Ry     beta= 0.30
     Davidson diagonalization with overlap
     ethr =  9.91E-08,  avg # of iterations =  1.6

     negative rho (up, down):  1.941E-05 0.000E+00

     total cpu time spent up to now is       30.5 secs

     total energy              =    -609.95373158 Ry
     estimated scf accuracy    <       0.00070321 Ry

     iteration #  4     ecut=    55.00 Ry     beta= 0.30
     Davidson diagonalization with overlap
     ethr =  9.91E-08,  avg # of iterations =  1.4

     negative rho (up, down):  1.855E-05 0.000E+00

     total cpu time spent up to now is       31.0 secs

     total energy              =    -609.95375452 Ry
     estimated scf accuracy    <       0.00009708 Ry

[...]
    -2.5511  -2.5303  -2.4512  -2.4299  -2.2927  -2.1727  -2.1209  -2.0246
    -1.9832  -1.8030  -1.7837  -1.7099  -1.5929  -1.1937  -0.8970  -0.3439
     0.7151   1.8819   2.8682   2.8911   3.1811   3.6446   3.8700   4.2756
     4.5344   4.5549   5.2548   5.8336   6.5329

          k = 0.3750 0.1768 0.0000 ( 19944 PWs)   bands (ev):

   -45.6043 -44.5360 -44.2192 -43.8332 -43.7786 -43.7660 -43.7624  -3.3835
    -3.3780  -3.3385  -3.2917  -3.2797  -3.2555  -3.2258  -3.1353  -3.1160
    -3.0908  -3.0547  -3.0397  -2.7958  -2.7810  -2.7564  -2.7452  -2.6954
    -2.5445  -2.4700  -2.4176  -2.3836  -2.3198  -2.2528  -2.1977  -2.0985
    -2.0521  -1.8623  -1.7841  -1.7338  -1.6741  -0.9743  -0.6985  -0.1278
     0.9769   2.0876   2.4696   2.9861   3.0990   3.2111   3.2778   3.5046
     3.5259   4.4316   5.5791   5.8500   5.9079

          k = 0.3750 0.2652 0.0000 ( 19919 PWs)   bands (ev):

   -45.6042 -44.5360 -44.2191 -43.8330 -43.7779 -43.7666 -43.7625  -3.3956
    -3.3906  -3.2784  -3.2726  -3.2057  -3.1908  -3.1555  -3.1232  -3.0955
    -2.9996  -2.9361  -2.8172  -2.7618  -2.7463  -2.7118  -2.7043  -2.5934
    -2.4895  -2.4714  -2.4497  -2.3890  -2.3649  -2.3339  -2.2975  -2.0951
    -2.0871  -1.8750  -1.8548  -1.7450  -1.7385  -0.5584  -0.2608   0.3277
     1.1800   1.3482   1.5551   2.3095   2.6677   2.9193   3.2942   3.5004
     3.7351   4.4818   5.1974   5.5245   6.0919

          k = 0.3750-0.3536 0.0000 ( 19954 PWs)   bands (ev):

   -45.6043 -44.5360 -44.2192 -43.8331 -43.7777 -43.7669 -43.7627  -3.4008
    -3.3957  -3.2906  -3.2727  -3.1607  -3.1526  -3.1410  -3.1319  -3.0119
    -2.9855  -2.8052  -2.7622  -2.7555  -2.7029  -2.6992  -2.6800  -2.5968
    -2.4889  -2.4848  -2.4750  -2.4354  -2.3670  -2.3669  -2.3302  -2.0783
    -2.0715  -1.8662  -1.8473  -1.7895  -1.7752   0.1337   0.1506   0.4643
     0.5341   0.9868   1.1253   2.1688   2.2835   3.0133   3.1829   3.8424
     3.8991   4.4316   4.7885   5.3457   5.9804

          k = 0.3750-0.2652 0.0000 ( 19919 PWs)   bands (ev):

   -45.6042 -44.5360 -44.2191 -43.8330 -43.7779 -43.7666 -43.7625  -3.3956
    -3.3906  -3.2784  -3.2726  -3.2057  -3.1908  -3.1555  -3.1232  -3.0955
    -2.9996  -2.9361  -2.8172  -2.7618  -2.7463  -2.7118  -2.7043  -2.5934
    -2.4895  -2.4714  -2.4497  -2.3890  -2.3649  -2.3339  -2.2975  -2.0951
    -2.0871  -1.8750  -1.8548  -1.7450  -1.7385  -0.5584  -0.2608   0.3277
     1.1800   1.3482   1.5551   2.3095   2.6677   2.9193   3.2942   3.5004
     3.7351   4.4818   5.1974   5.5245   6.0919

          k = 0.3750-0.1768 0.0000 ( 19944 PWs)   bands (ev):

   -45.6043 -44.5360 -44.2192 -43.8332 -43.7786 -43.7660 -43.7624  -3.3835
    -3.3780  -3.3385  -3.2917  -3.2797  -3.2555  -3.2258  -3.1353  -3.1160
    -3.0908  -3.0547  -3.0397  -2.7958  -2.7810  -2.7564  -2.7452  -2.6954
    -2.5445  -2.4700  -2.4176  -2.3836  -2.3198  -2.2528  -2.1977  -2.0985
    -2.0521  -1.8623  -1.7841  -1.7338  -1.6741  -0.9743  -0.6985  -0.1278
     0.9769   2.0876   2.4696   2.9861   3.0990   3.2111   3.2778   3.5046
     3.5259   4.4316   5.5791   5.8500   5.9079

          k = 0.3750-0.0884 0.0000 ( 19943 PWs)   bands (ev):

   -45.6043 -44.5360 -44.2192 -43.8333 -43.7792 -43.7655 -43.7622  -3.4963
    -3.4312  -3.3686  -3.3641  -3.3239  -3.2510  -3.2322  -3.2161  -3.1458
    -3.1431  -3.1069  -3.0863  -2.9278  -2.8321  -2.8177  -2.7670  -2.7413
    -2.5511  -2.5303  -2.4512  -2.4299  -2.2927  -2.1727  -2.1209  -2.0246
    -1.9832  -1.8030  -1.7837  -1.7099  -1.5929  -1.1937  -0.8970  -0.3439
     0.7151   1.8819   2.8682   2.8911   3.1811   3.6446   3.8700   4.2756
     4.5344   4.5549   5.2548   5.8336   6.5329

          k =-0.5000 0.0000 0.0000 ( 19974 PWs)   bands (ev):

   -45.6037 -44.5353 -44.2185 -43.8325 -43.7788 -43.7646 -43.7612  -3.5318
    -3.4891  -3.4802  -3.4641  -3.3498  -3.3057  -3.2955  -3.2703  -3.1867
    -3.1626  -3.1501  -3.1316  -2.9603  -2.9208  -2.8612  -2.8030  -2.7844
    -2.6846  -2.5852  -2.5786  -2.5117  -2.2121  -2.1765  -2.0322  -1.9464
    -1.8437  -1.7927  -1.5585  -1.5278  -1.4576   0.3983   0.6481   0.7439
     1.1537   1.1709   1.7936   1.8989   2.8038   3.1732   3.6502   4.6957
     4.8378   5.5396   5.9311   6.3947   6.6230

          k =-0.5000 0.0884 0.0000 ( 19948 PWs)   bands (ev):

   -45.6037 -44.5353 -44.2185 -43.8325 -43.7784 -43.7647 -43.7614  -3.4862
    -3.4794  -3.4592  -3.4203  -3.3520  -3.3210  -3.2928  -3.2141  -3.1904
    -3.1622  -3.1172  -3.1057  -2.9122  -2.9096  -2.8272  -2.8098  -2.7372
    -2.6343  -2.6070  -2.5254  -2.5021  -2.2802  -2.1263  -2.0760  -1.9904
    -1.9417  -1.6923  -1.6616  -1.4825  -1.4697   0.4342   0.6833   0.8652
     1.2138   1.2275   1.8039   1.9690   2.7997   3.2524   3.5790   4.6421
     4.7536   5.4700   5.5204   5.6972   6.1345

          k =-0.5000 0.1768 0.0000 ( 19956 PWs)   bands (ev):

   -45.6037 -44.5353 -44.2185 -43.8324 -43.7778 -43.7653 -43.7616  -3.4967
    -3.4889  -3.3848  -3.3276  -3.3056  -3.2686  -3.2255  -3.2186  -3.1899
    -3.0709  -3.0213  -3.0184  -2.8678  -2.8362  -2.7602  -2.7224  -2.6681
    -2.6294  -2.5408  -2.4884  -2.4483  -2.3071  -2.2218  -2.1750  -2.0521
    -1.9835  -1.7998  -1.5820  -1.5231  -1.4642   0.5668   0.8145   1.2146
     1.3614   1.4521   1.8502   2.1653   2.7193   3.3231   3.3817   3.7729
     4.1273   4.7143   4.8026   5.2843   5.4156

          k =-0.5000 0.2652 0.0000 ( 19924 PWs)   bands (ev):

   -45.6036 -44.5352 -44.2184 -43.8322 -43.7771 -43.7658 -43.7617  -3.5070
    -3.4998  -3.3782  -3.3757  -3.2443  -3.2089  -3.1658  -3.1480  -3.0689
    -2.9533  -2.9136  -2.8512  -2.8139  -2.7807  -2.7020  -2.6760  -2.5741
    -2.5613  -2.5486  -2.4454  -2.4372  -2.4030  -2.3535  -2.2766  -2.0445
    -1.9957  -1.6966  -1.6766  -1.5161  -1.4880   0.8732   1.1225   1.6604
     1.7508   1.8205   1.9810   2.3512   2.4535   2.4881   2.6635   2.9772
     3.3512   4.1634   4.6016   4.7384   5.2839

          k =-0.5000-0.3536 0.0000 ( 19904 PWs)   bands (ev):

   -45.6035 -44.5352 -44.2183 -43.8322 -43.7768 -43.7660 -43.7618  -3.5102
    -3.5048  -3.3933  -3.3737  -3.2477  -3.2287  -3.1042  -3.0885  -2.9680
    -2.9360  -2.8393  -2.8059  -2.7527  -2.7391  -2.6913  -2.6775  -2.5772
    -2.5630  -2.5069  -2.4635  -2.4535  -2.4336  -2.3971  -2.3481  -1.9742
    -1.9645  -1.6960  -1.6776  -1.5261  -1.5107   1.4625   1.4631   1.7115
     1.7187   2.0922   2.1557   2.1639   2.1814   2.2557   2.4378   2.4930
     2.6838   3.9643   4.5806   4.7238   5.3449

     the Fermi energy is     1.9863 ev

!    total energy              =    -609.95936347 Ry
     estimated scf accuracy    <          4.9E-09 Ry
     smearing contrib. (-TS)   =      -0.00162521 Ry
     internal energy E=F+TS    =    -609.95773826 Ry

     The total energy is F=E-TS. E is the sum of the following terms:
     one-electron contribution =   -6136.69942402 Ry
     hartree contribution      =    3108.81993900 Ry
     xc contribution           =    -159.35701332 Ry
     ewald contribution        =    2577.51161191 Ry
     DFT-D3 Dispersion         =      -0.23285183 Ry

     convergence has been achieved in   8 iterations

     negative rho (up, down):  1.375E-05 0.000E+00

     Forces acting on atoms (cartesian axes, Ry/au):

     atom    1 type  1   force =    -0.00000004    0.00000010   -0.00073551
     atom    2 type  1   force =     0.00000009   -0.00000019    0.00031209
     atom    3 type  1   force =    -0.00000009   -0.00000021   -0.00065841
     atom    4 type  1   force =     0.00000001    0.00000010    0.00049831
     atom    5 type  1   force =     0.00000004    0.00000006    0.00016270
     atom    6 type  1   force =    -0.00000002   -0.00000014   -0.00054452
     atom    7 type  2   force =    -0.00000007    0.00000002   -0.00015667
     atom    8 type  2   force =    -0.00000003    0.00000011   -0.00000134
     atom    9 type  2   force =     0.00000002    0.00000006    0.00066376
     atom   10 type  2   force =    -0.00000012    0.00000005    0.00082185
     atom   11 type  2   force =     0.00000000   -0.00000004   -0.00021821
     atom   12 type  2   force =    -0.00000008    0.00000005   -0.00092274
     atom   13 type  2   force =     0.00000028    0.00000002    0.00077869
     The non-local contrib.  to forces
     atom    1 type  1   force =     0.00000001    0.00000018    0.01872604
     atom    2 type  1   force =    -0.00000001   -0.00000004   -0.01545811
     atom    3 type  1   force =     0.00000011   -0.00000002    0.00708383
     atom    4 type  1   force =     0.00000004    0.00000021   -0.00227176
     atom    5 type  1   force =    -0.00000013   -0.00000001    0.00705665
     atom    6 type  1   force =     0.00000006   -0.00000013   -0.03047320
     atom    7 type  2   force =    -0.00000885    0.00000002    0.02080563
     atom    8 type  2   force =    -0.00000548    0.00000009    0.00124282
     atom    9 type  2   force =    -0.00000455    0.00000001    0.00114012
     atom   10 type  2   force =    -0.00000511    0.00000004   -0.00129714
     atom   11 type  2   force =    -0.00000503   -0.00000004   -0.00342589
     atom   12 type  2   force =    -0.00000674    0.00000006   -0.04360260
     atom   13 type  2   force =     0.00001394   -0.00000002    0.05725234
     The ionic contribution  to forces
     atom    1 type  1   force =    -0.00000131    0.00000761  102.77592873
     atom    2 type  1   force =     0.00000052   -0.00001739   63.70806566
     atom    3 type  1   force =    -0.00000048   -0.00000783   17.31356964
     atom    4 type  1   force =     0.00000032    0.00000895  -25.48879060
     atom    5 type  1   force =     0.00000033    0.00000936  -71.67167127
     atom    6 type  1   force =     0.00000122   -0.00000712 -112.53415913
     atom    7 type  2   force =    -0.00000174    0.00000041   30.93685643
     atom    8 type  2   force =     0.00000056    0.00000631   16.09022997
     atom    9 type  2   force =     0.00000050    0.00000137    5.50895261
     atom   10 type  2   force =    -0.00000138   -0.00000071   -7.67748600
     atom   11 type  2   force =     0.00000074   -0.00000270  -18.58747354
     atom   12 type  2   force =    -0.00000180    0.00000277  -32.67515730
     atom   13 type  2   force =     0.00000253   -0.00000102   32.30113481
     The local contribution  to forces
     atom    1 type  1   force =     0.00000117   -0.00000784 -102.79031772
     atom    2 type  1   force =    -0.00000040    0.00001716  -63.69004078
     atom    3 type  1   force =     0.00000037    0.00000779  -17.32006337
     atom    4 type  1   force =    -0.00000036   -0.00000917   25.49030497
     atom    5 type  1   force =    -0.00000009   -0.00000926   71.66178267
     atom    6 type  1   force =    -0.00000132    0.00000714  112.55382439
     atom    7 type  2   force =     0.00001049   -0.00000040  -30.95581013
     atom    8 type  2   force =     0.00000487   -0.00000628  -16.08972381
     atom    9 type  2   force =     0.00000408   -0.00000136   -5.50947338
     atom   10 type  2   force =     0.00000638    0.00000076    7.67959266
     atom   11 type  2   force =     0.00000430    0.00000270   18.58861239
     atom   12 type  2   force =     0.00000848   -0.00000277   32.71603304
     atom   13 type  2   force =    -0.00001618    0.00000107  -32.35595126
     The core correction contribution to forces
     atom    1 type  1   force =     0.00000001   -0.00000001   -0.00047031
     atom    2 type  1   force =    -0.00000001    0.00000003   -0.00073194
     atom    3 type  1   force =     0.00000001    0.00000002    0.00004929
     atom    4 type  1   force =     0.00000000   -0.00000001    0.00005124
     atom    5 type  1   force =    -0.00000001   -0.00000001    0.00026215
     atom    6 type  1   force =    -0.00000000    0.00000002    0.00522423
     atom    7 type  2   force =     0.00000000    0.00000000    0.00000000
     atom    8 type  2   force =     0.00000000    0.00000000    0.00000000
     atom    9 type  2   force =     0.00000000    0.00000000    0.00000000
     atom   10 type  2   force =     0.00000000    0.00000000    0.00000000
     atom   11 type  2   force =     0.00000000    0.00000000    0.00000000
     atom   12 type  2   force =     0.00000000    0.00000000    0.00000000
     atom   13 type  2   force =     0.00000000    0.00000000    0.00000000
     The Hubbard contrib.    to forces
     atom    1 type  1   force =     0.00000000    0.00000000    0.00000000
     atom    2 type  1   force =     0.00000000    0.00000000    0.00000000
     atom    3 type  1   force =     0.00000000    0.00000000    0.00000000
     atom    4 type  1   force =     0.00000000    0.00000000    0.00000000
     atom    5 type  1   force =     0.00000000    0.00000000    0.00000000
     atom    6 type  1   force =     0.00000000    0.00000000    0.00000000
     atom    7 type  2   force =     0.00000000    0.00000000    0.00000000
     atom    8 type  2   force =     0.00000000    0.00000000    0.00000000
     atom    9 type  2   force =     0.00000000    0.00000000    0.00000000
     atom   10 type  2   force =     0.00000000    0.00000000    0.00000000
     atom   11 type  2   force =     0.00000000    0.00000000    0.00000000
     atom   12 type  2   force =     0.00000000    0.00000000    0.00000000
     atom   13 type  2   force =     0.00000000    0.00000000    0.00000000
     The SCF correction term to forces
     atom    1 type  1   force =     0.00000007    0.00000016    0.00003356
     atom    2 type  1   force =     0.00000000    0.00000004    0.00004955
     atom    3 type  1   force =    -0.00000010   -0.00000018    0.00002607
     atom    4 type  1   force =     0.00000002    0.00000015   -0.00003172
     atom    5 type  1   force =    -0.00000004   -0.00000002   -0.00000258
     atom    6 type  1   force =     0.00000003   -0.00000005   -0.00004443
     atom    7 type  2   force =     0.00000004   -0.00000001   -0.00000686
     atom    8 type  2   force =     0.00000003   -0.00000002    0.00002229
     atom    9 type  2   force =    -0.00000000    0.00000003    0.00003925
     atom   10 type  2   force =     0.00000001   -0.00000003   -0.00000572
     atom   11 type  2   force =     0.00000000    0.00000000    0.00001760
     atom   12 type  2   force =    -0.00000001   -0.00000000   -0.00000844
     atom   13 type  2   force =     0.00000001   -0.00000001   -0.00004108

     DFT-D3 dispersion contribution to forces:
     atom    1 type  1   force =     0.00000001   -0.00000000   -0.00463730
     atom    2 type  1   force =    -0.00000000    0.00000002   -0.00157379
     atom    3 type  1   force =     0.00000000    0.00000001   -0.00132537
     atom    4 type  1   force =     0.00000000   -0.00000001    0.00123468
     atom    5 type  1   force =    -0.00000001   -0.00000001    0.00273359
     atom    6 type  1   force =     0.00000000    0.00000001    0.00508212
     atom    7 type  2   force =    -0.00000000   -0.00000000   -0.00200324
     atom    8 type  2   force =    -0.00000000   -0.00000000   -0.00177410
     atom    9 type  2   force =    -0.00000000    0.00000000    0.00000367
     atom   10 type  2   force =     0.00000000   -0.00000000    0.00001656
     atom   11 type  2   force =    -0.00000000   -0.00000000    0.00204974
     atom   12 type  2   force =     0.00000000   -0.00000000    0.00181107
     atom   13 type  2   force =    -0.00000001   -0.00000000   -0.00161761

     Total force =     0.002071     Total SCF correction =     0.000107


     Computing stress (Cartesian axis) and pressure


     negative rho (up, down):  1.375E-05 0.000E+00
          total   stress  (Ry/bohr**3)                   (kbar)     P=      -12.19
  -0.00008746  -0.00000000   0.00000000          -12.87       -0.00        0.00
  -0.00000000  -0.00010688   0.00000000           -0.00      -15.72        0.00
   0.00000000   0.00000000  -0.00005416            0.00        0.00       -7.97

     Energy error            =      1.4E-05 Ry
     Gradient error          =      9.2E-04 Ry/Bohr

     bfgs converged in  24 scf cycles and  23 bfgs steps
     (criteria: energy <  1.0E-04 Ry, force <  1.0E-03 Ry/Bohr)

     End of BFGS Geometry Optimization

     Final energy             =    -609.9593634704 Ry

     File ./LiAg_mp-2426_110_ontop_0/LiAg_mp-2426_110_ontop_0.bfgs deleted, as requested
Begin final coordinates

ATOMIC_POSITIONS (angstrom)
Ag            0.7806825613        1.1040590097       20.7684170821
Ag            0.7806826563        3.3121713009       18.8625267813
Ag            0.7806837999        1.1040576930       16.5126431911
Ag            0.7806840194        3.3121645510       14.4558333858
Ag            0.7806835589        1.1040521956       12.1498269788
Ag            0.7806849138        3.3121640863       10.1941960658
Li            2.3420542940        3.3121693092       21.3094324378
Li            2.3420528766        1.1040591621       18.6487006644
Li            2.3420535401        3.3121683648       16.6483591887
Li            2.3420545709        1.1040533087       14.3222570982
Li            2.3420539309        3.3121633181       12.2972082169
Li            2.3420557757        1.1040526462        9.8325565953
Li            0.7806918006        1.1040568221       23.3018801768
End final coordinates



     Writing all to output data dir ./LiAg_mp-2426_110_ontop_0/LiAg_mp-2426_110_ontop_0.save/

     init_run     :      6.54s CPU      7.17s WALL (       1 calls)
     electrons    :    125.60s CPU    144.08s WALL (      24 calls)
     update_pot   :      5.57s CPU      5.87s WALL (      23 calls)
     forces       :      5.50s CPU      6.45s WALL (      24 calls)
     force_dftd3  :      0.29s CPU      0.53s WALL (      24 calls)
     stress       :     24.50s CPU     25.48s WALL (      24 calls)
     stres_dftd3  :      0.24s CPU      0.39s WALL (      24 calls)

     Called by init_run:
     wfcinit      :      0.54s CPU      0.91s WALL (       1 calls)
     potinit      :      2.17s CPU      2.19s WALL (       1 calls)
     hinit0       :      3.70s CPU      3.89s WALL (       1 calls)

     Called by electrons:
     c_bands      :    105.78s CPU    118.62s WALL (     223 calls)
     sum_band     :     15.40s CPU     17.36s WALL (     223 calls)
     v_of_rho     :      2.07s CPU      2.82s WALL (     235 calls)
     newd         :      1.40s CPU      1.53s WALL (     235 calls)
     mix_rho      :      0.28s CPU      0.32s WALL (     223 calls)
     energy_dftd3 :      0.07s CPU      0.07s WALL (      24 calls)

     Called by c_bands:
     init_us_2    :      0.65s CPU      0.71s WALL (    4455 calls)
     init_us_2:cp :      0.64s CPU      0.71s WALL (    4455 calls)
     cegterg      :     98.44s CPU    105.76s WALL (    2007 calls)

     Called by *egterg:
     cdiaghg      :     24.84s CPU     25.06s WALL (    7690 calls)
     h_psi        :     58.73s CPU     64.73s WALL (    8014 calls)
     s_psi        :      3.06s CPU      3.12s WALL (    8014 calls)
     g_psi        :      0.19s CPU      0.19s WALL (    5998 calls)

     Called by h_psi:
     h_psi:calbec :      5.00s CPU      6.06s WALL (    8014 calls)
     vloc_psi     :     50.56s CPU     55.39s WALL (    8014 calls)
     add_vuspsi   :      3.00s CPU      3.11s WALL (    8014 calls)

     General routines
     calbec       :      8.76s CPU     10.23s WALL (   11101 calls)
     fft          :      6.13s CPU      7.08s WALL (    3642 calls)
     ffts         :      2.21s CPU      2.63s WALL (     458 calls)
     fftw         :     55.91s CPU     61.15s WALL (  630817 calls)
     interpolate  :      2.24s CPU      2.51s WALL (     235 calls)

     Parallel routines

     PWSCF        :   2m48.68s CPU   3m11.68s WALL


   This run was terminated on:   7:29:40   6Aug2025            

=------------------------------------------------------------------------------=
   JOB DONE.
=------------------------------------------------------------------------------=
