
     Program PWSCF v.7.2 starts on  4Aug2025 at 12:25:12 

     This program is part of the open-source Quantum ESPRESSO suite
     for quantum simulation of materials; please cite
         "P. Giannozzi et al., J. Phys.:Condens. Matter 21 395502 (2009);
         "P. Giannozzi et al., J. Phys.:Condens. Matter 29 465901 (2017);
         "P. Giannozzi et al., J. Chem. Phys. 152 154105 (2020);
          URL http://www.quantum-espresso.org", 
     in publications or presentations arising from this work. More details at
     http://www.quantum-espresso.org/quote

     Parallel version (MPI & OpenMP), running on     256 processor cores
     Number of MPI processes:               256
     Threads/MPI process:                     1

     MPI processes distributed on     4 nodes
     241184 MiB available memory on the printing compute node when the environment starts

     Reading input from LiAg_mp-2426_110.in

     Current dimensions of program PWSCF are:
     Max number of different atomic species (ntypx) = 10
     Max number of k-points (npk) =  40000
     Max angular momentum in pseudopotentials (lmaxx) =  4
     Message from routine iosys:
     restart disabled: needed files not found

     K-points division:     npool     =       4
     R & G space division:  proc/nbgrp/npool/nimage =      64
     Subspace diagonalization in iterative solution of the eigenvalue problem:
     a serial algorithm will be used


     Parallelization info
     --------------------
     sticks:   dense  smooth     PW     G-vecs:    dense   smooth      PW
     Min          30      13      4                 8502     2473     376
     Max          31      14      5                 8541     2518     416
     Sum        1961     865    259               545233   159021   25681

     Using Slab Decomposition



     bravais-lattice index     =            0
     lattice parameter (alat)  =       5.9011  a.u.
     unit-cell volume          =    2888.7690 (a.u.)^3
     number of atoms/cell      =           12
     number of atomic types    =            2
     number of electrons       =        84.00
     number of Kohn-Sham states=           50
     kinetic-energy cutoff     =      55.0000  Ry
     charge density cutoff     =     500.0000  Ry
     scf convergence threshold =      1.0E-06
     mixing beta               =       0.3000
     number of iterations used =            8  plain     mixing
     energy convergence thresh.=      1.0E-04
     force convergence thresh. =      1.0E-03
     Exchange-correlation= PBE
                           (   1   4   3   4   0   0   0)
     nstep                     =          500


     celldm(1)=   5.901124  celldm(2)=   0.000000  celldm(3)=   0.000000
     celldm(4)=   0.000000  celldm(5)=   0.000000  celldm(6)=   0.000000

     crystal axes: (cart. coord. in units of alat)
               a(1) = (   1.000000   0.000000   0.000000 )  
               a(2) = (   0.000000   1.414214  -0.000000 )  
               a(3) = (   0.000000   0.000000   9.940165 )  

     reciprocal axes: (cart. coord. in units 2 pi/alat)
               b(1) = (  1.000000 -0.000000  0.000000 )  
               b(2) = (  0.000000  0.707107  0.000000 )  
               b(3) = ( -0.000000  0.000000  0.100602 )  


     PseudoPot. # 1 for Ag read from file:
     /home/ecastro/trabajo_final/pseudos/Ag.pbe-n-rrkjus_psl.1.0.0.UPF
     MD5 check sum: 81cdf87bacf708300839c66ee23ce017
     Pseudo is Ultrasoft + core correction, Zval = 11.0
     Generated using &quot;atomic&quot; code by A. Dal Corso  v.6.2.2
     Using radial grid of 1237 points,  6 beta functions with: 
                l(1) =   0
                l(2) =   0
                l(3) =   1
                l(4) =   1
                l(5) =   2
                l(6) =   2
     Q(r) pseudized with 0 coefficients 


     PseudoPot. # 2 for Li read from file:
     /home/ecastro/trabajo_final/pseudos/Li.pbe-s-rrkjus_psl.1.0.0.UPF
     MD5 check sum: 9f98d2529904d60b716d33989e9bc179
     Pseudo is Ultrasoft, Zval =  3.0
     Generated using &quot;atomic&quot; code by A. Dal Corso  v.6.3MaX
     Using radial grid of 1017 points,  4 beta functions with: 
                l(1) =   0
                l(2) =   0
                l(3) =   1
                l(4) =   1
     Q(r) pseudized with 0 coefficients 


     atomic species   valence    mass     pseudopotential
        Ag            11.00   107.86820     Ag( 1.00)
        Li             3.00     6.94100     Li( 1.00)

     No symmetry found



   Cartesian axes

     site n.     atom                  positions (alat units)
         1           Ag  tau(   1) = (   0.2500000   0.3535534   6.7378495  )
         2           Ag  tau(   2) = (   0.2500000   1.0606602   6.0307427  )
         3           Ag  tau(   3) = (   0.2500000   0.3535534   5.3236359  )
         4           Ag  tau(   4) = (   0.2500000   1.0606602   4.6165291  )
         5           Ag  tau(   5) = (   0.2500000   0.3535534   3.9094224  )
         6           Ag  tau(   6) = (   0.2500000   1.0606602   3.2023156  )
         7           Li  tau(   7) = (   0.7500000   1.0606602   6.7378495  )
         8           Li  tau(   8) = (   0.7500000   0.3535534   6.0307427  )
         9           Li  tau(   9) = (   0.7500000   1.0606602   5.3236359  )
        10           Li  tau(  10) = (   0.7500000   0.3535534   4.6165291  )
        11           Li  tau(  11) = (   0.7500000   1.0606602   3.9094224  )
        12           Li  tau(  12) = (   0.7500000   0.3535534   3.2023156  )

     --------------------------------------------
     DFT-D3 Dispersion Correction (no 3-body):
     --------------------------------------------
       Reference C6 values for interpolation: 

         atom   Coordination number   C6
         Li         0.000          2326.89
         Li         0.987           170.64
         Ag         0.000           853.49
         Ag         0.968           537.23

       Values used:

         atom   Coordination number  R0_AB[au]  C6      C8
         Ag         7.370            3.147    537.23  47741.54
         Ag        10.124            3.147    537.23  47741.54
         Ag        10.143            3.147    537.23  47741.54
         Ag        10.143            3.147    537.23  47741.54
         Ag        10.124            3.147    537.23  47741.54
         Ag         7.370            3.147    537.23  47741.54
         Li         8.083            3.303    170.64  12899.87
         Li        11.194            3.303    170.64  12899.87
         Li        11.219            3.303    170.64  12899.87
         Li        11.219            3.303    170.64  12899.87
         Li        11.194            3.303    170.64  12899.87
         Li         8.083            3.303    170.64  12899.87

         Molecular C6 ( Ry / a.u.^6 ) =     46313.66


     number of k points=    34  Methfessel-Paxton smearing, width (Ry)=  0.0300
                       cart. coord. in units 2pi/alat
        k(    1) = (   0.0000000   0.0000000   0.0000000), wk =   0.0312500
        k(    2) = (   0.0000000   0.0883883   0.0000000), wk =   0.0625000
        k(    3) = (   0.0000000   0.1767767   0.0000000), wk =   0.0625000
        k(    4) = (   0.0000000   0.2651650   0.0000000), wk =   0.0625000
        k(    5) = (   0.0000000  -0.3535534   0.0000000), wk =   0.0312500
        k(    6) = (   0.1250000  -0.0000000   0.0000000), wk =   0.0625000
        k(    7) = (   0.1250000   0.0883883   0.0000000), wk =   0.0625000
        k(    8) = (   0.1250000   0.1767767   0.0000000), wk =   0.0625000
        k(    9) = (   0.1250000   0.2651650   0.0000000), wk =   0.0625000
        k(   10) = (   0.1250000  -0.3535534   0.0000000), wk =   0.0625000
        k(   11) = (   0.1250000  -0.2651650   0.0000000), wk =   0.0625000
        k(   12) = (   0.1250000  -0.1767767   0.0000000), wk =   0.0625000
        k(   13) = (   0.1250000  -0.0883883   0.0000000), wk =   0.0625000
        k(   14) = (   0.2500000  -0.0000000   0.0000000), wk =   0.0625000
        k(   15) = (   0.2500000   0.0883883   0.0000000), wk =   0.0625000
        k(   16) = (   0.2500000   0.1767767   0.0000000), wk =   0.0625000
        k(   17) = (   0.2500000   0.2651650   0.0000000), wk =   0.0625000
        k(   18) = (   0.2500000  -0.3535534   0.0000000), wk =   0.0625000
        k(   19) = (   0.2500000  -0.2651650   0.0000000), wk =   0.0625000
        k(   20) = (   0.2500000  -0.1767767   0.0000000), wk =   0.0625000
        k(   21) = (   0.2500000  -0.0883883   0.0000000), wk =   0.0625000
        k(   22) = (   0.3750000  -0.0000000   0.0000000), wk =   0.0625000
        k(   23) = (   0.3750000   0.0883883   0.0000000), wk =   0.0625000
        k(   24) = (   0.3750000   0.1767767   0.0000000), wk =   0.0625000
        k(   25) = (   0.3750000   0.2651650   0.0000000), wk =   0.0625000
        k(   26) = (   0.3750000  -0.3535534   0.0000000), wk =   0.0625000
        k(   27) = (   0.3750000  -0.2651650   0.0000000), wk =   0.0625000
        k(   28) = (   0.3750000  -0.1767767   0.0000000), wk =   0.0625000
        k(   29) = (   0.3750000  -0.0883883   0.0000000), wk =   0.0625000
        k(   30) = (  -0.5000000   0.0000000   0.0000000), wk =   0.0312500
        k(   31) = (  -0.5000000   0.0883883   0.0000000), wk =   0.0625000
        k(   32) = (  -0.5000000   0.1767767   0.0000000), wk =   0.0625000
        k(   33) = (  -0.5000000   0.2651650   0.0000000), wk =   0.0625000
        k(   34) = (  -0.5000000  -0.3535534   0.0000000), wk =   0.0312500

     Dense  grid:   545233 G-vectors     FFT dimensions: (  45,  60, 432)

     Smooth grid:   159021 G-vectors     FFT dimensions: (  27,  40, 288)

     Estimated max dynamical RAM per process >      18.38 MB

     Estimated total dynamical RAM >       4.21 GB
     Cannot read rho : file not found

     Initial potential from superposition of free atoms

     starting charge      83.9700, renormalised to      84.0000

     negative rho (up, down):  6.101E-05 0.000E+00
     Message from routine qexsd_readschema :
     xml data file ./LiAg_110/LiAg_110.save/data-file-schema.xml not found
     Cannot read wfcs: file not found
     Starting wfcs are   84 randomized atomic wfcs

     total cpu time spent up to now is        7.6 secs

     per-process dynamical memory:   177.0 Mb

     Self-consistent Calculation

     iteration #  1     ecut=    55.00 Ry     beta= 0.30
     Davidson diagonalization with overlap
     c_bands:  1 eigenvalues not converged
     c_bands:  1 eigenvalues not converged
     ethr =  1.00E-05,  avg # of iterations = 16.1

     negative rho (up, down):  5.106E-05 0.000E+00

     total cpu time spent up to now is       10.0 secs

     total energy              =    -594.73438982 Ry
     estimated scf accuracy    <       0.99335326 Ry

     iteration #  2     ecut=    55.00 Ry     beta= 0.30
     Davidson diagonalization with overlap
     ethr =  1.18E-03,  avg # of iterations =  7.8

     negative rho (up, down):  1.771E-04 0.000E+00

     total cpu time spent up to now is       10.9 secs

     total energy              =    -594.27591461 Ry
     estimated scf accuracy    <      13.72990715 Ry

     iteration #  3     ecut=    55.00 Ry     beta= 0.30
     Davidson diagonalization with overlap
     ethr =  1.18E-03,  avg # of iterations =  5.7

     negative rho (up, down):  1.121E-04 0.000E+00

     total cpu time spent up to now is       11.7 secs

     total energy              =    -595.08352673 Ry
     estimated scf accuracy    <       0.12287133 Ry

     iteration #  4     ecut=    55.00 Ry     beta= 0.30
     Davidson diagonalization with overlap
     ethr =  1.46E-04,  avg # of iterations =  3.4

     negative rho (up, down):  7.345E-05 0.000E+00

     total cpu time spent up to now is       12.3 secs

     total energy              =    -595.09028474 Ry
     estimated scf accuracy    <       0.00987684 Ry

     iteration #  5     ecut=    55.00 Ry     beta= 0.30
     Davidson diagonalization with overlap
     ethr =  1.18E-05,  avg # of iterations =  8.0

     negative rho (up, down):  4.788E-05 0.000E+00

     total cpu time spent up to now is       13.1 secs

     total energy              =    -595.09042567 Ry
     estimated scf accuracy    <       0.00329012 Ry

     iteration #  6     ecut=    55.00 Ry     beta= 0.30
     Davidson diagonalization with overlap
     ethr =  3.92E-06,  avg # of iterations = 10.3

     negative rho (up, down):  3.844E-05 0.000E+00

     total cpu time spent up to now is       14.0 secs

     total energy              =    -595.08746941 Ry
     estimated scf accuracy    <       0.14029958 Ry

     iteration #  7     ecut=    55.00 Ry     beta= 0.30
     Davidson diagonalization with overlap
     ethr =  3.92E-06,  avg # of iterations = 10.1

     negative rho (up, down):  3.021E-05 0.000E+00

     total cpu time spent up to now is       14.9 secs

     total energy              =    -595.09099231 Ry
     estimated scf accuracy    <       0.00035863 Ry

     iteration #  8     ecut=    55.00 Ry     beta= 0.30
     Davidson diagonalization with overlap
     ethr =  4.27E-07,  avg # of iterations =  3.4

     negative rho (up, down):  2.723E-05 0.000E+00

     total cpu time spent up to now is       15.5 secs

     total energy              =    -595.09102231 Ry
     estimated scf accuracy    <       0.00005181 Ry

     iteration #  9     ecut=    55.00 Ry     beta= 0.30
     Davidson diagonalization with overlap
     ethr =  6.17E-08,  avg # of iterations =  3.1

     negative rho (up, down):  2.557E-05 0.000E+00

     total cpu time spent up to now is       16.1 secs

     total energy              =    -595.09103091 Ry
     estimated scf accuracy    <       0.00002264 Ry

     iteration # 10     ecut=    55.00 Ry     beta= 0.30
     Davidson diagonalization with overlap
     ethr =  2.70E-08,  avg # of iterations =  2.1

     negative rho (up, down):  2.538E-05 0.000E+00

     total cpu time spent up to now is       16.6 secs

     total energy              =    -595.09103410 Ry
     estimated scf accuracy    <       0.00000892 Ry

     iteration # 11     ecut=    55.00 Ry     beta= 0.30
     Davidson diagonalization with overlap
     ethr =  1.06E-08,  avg # of iterations =  3.2

     negative rho (up, down):  2.484E-05 0.000E+00

     total cpu time spent up to now is       17.2 secs

     total energy              =    -595.09103615 Ry
     estimated scf accuracy    <       0.00000270 Ry

     iteration # 12     ecut=    55.00 Ry     beta= 0.30
     Davidson diagonalization with overlap
     ethr =  3.21E-09,  avg # of iterations =  2.5

     negative rho (up, down):  2.386E-05 0.000E+00

     total cpu time spent up to now is       17.8 secs

     End of self-consistent calculation

          k = 0.0000 0.0000 0.0000 ( 19753 PWs)   bands (ev):

   -44.9524 -44.9522 -44.4229 -44.4225 -44.3760 -44.3708  -4.6999  -4.2970
    -4.0233  -4.0115  -3.9899  -3.9606  -3.8595  -3.7798  -3.7725  -3.7676
    -3.6611  -3.6321  -3.4716  -3.4113  -3.3924  -2.9716  -2.9690  -2.9617
    -2.9101  -2.8818  -2.7979  -2.7689  -2.7583  -2.7175  -2.6564  -2.6542
    -2.5893  -2.5693  -2.5473  -2.5238  -2.4984  -2.4848  -2.1880  -1.8864
    -0.5469   0.9035   1.6189   1.7402   2.4904   3.5802   4.4740   4.8760
     4.8897   5.3632

          k = 0.0000 0.0884 0.0000 ( 19735 PWs)   bands (ev):

   -44.9523 -44.9521 -44.4227 -44.4225 -44.3758 -44.3708  -4.6105  -4.2840
    -4.0013  -3.9850  -3.9702  -3.9563  -3.8086  -3.7860  -3.7765  -3.7285
    -3.6650  -3.6528  -3.4527  -3.3681  -3.3330  -3.0391  -2.9890  -2.9881
    -2.9158  -2.8970  -2.7993  -2.7661  -2.7384  -2.6778  -2.6690  -2.6688
    -2.6342  -2.5939  -2.5700  -2.5454  -2.4857  -2.4817  -2.3173  -1.6433
    -0.3636   0.7374   1.4314   1.7501   1.9626   2.9017   4.1193   4.8875
     5.0461   5.4606

          k = 0.0000 0.1768 0.0000 ( 19834 PWs)   bands (ev):

   -44.9524 -44.9522 -44.4227 -44.4225 -44.3754 -44.3714  -4.3868  -4.2349
    -4.0304  -3.9340  -3.9266  -3.8418  -3.8026  -3.7740  -3.7326  -3.6901
    -3.6828  -3.5887  -3.3465  -3.3288  -3.2408  -3.0360  -3.0301  -3.0299
    -2.9343  -2.9327  -2.8301  -2.8008  -2.7940  -2.7845  -2.7667  -2.6980
    -2.6559  -2.6416  -2.5488  -2.5395  -2.4717  -2.4678  -2.1782  -1.1453
    -0.2564  -0.0815   0.9518   1.5264   1.9200   2.3612   2.9032   4.2242
     5.4072   5.4330

          k = 0.0000 0.2652 0.0000 ( 19874 PWs)   bands (ev):

   -44.9523 -44.9522 -44.4226 -44.4225 -44.3745 -44.3724  -4.1734  -4.1602
    -4.0513  -3.9168  -3.8770  -3.8670  -3.7866  -3.7460  -3.6826  -3.6715
    -3.5872  -3.3916  -3.3052  -3.3003  -3.1738  -3.0735  -3.0687  -3.0129
    -2.9789  -2.9614  -2.9551  -2.9322  -2.8217  -2.8201  -2.7825  -2.6737
    -2.6041  -2.5582  -2.5158  -2.4641  -2.4589  -2.4528  -1.6044  -1.3837
    -0.6766  -0.5064   0.5397   1.0772   1.6977   2.4272   3.1245   3.2427
     4.5212   5.4599

          k = 0.0000-0.3536 0.0000 ( 19864 PWs)   bands (ev):

   -44.9523 -44.9522 -44.4226 -44.4224 -44.3734 -44.3734  -4.1069  -4.1069
    -4.0055  -4.0054  -3.8564  -3.8564  -3.7790  -3.7789  -3.6667  -3.6667
    -3.3981  -3.3980  -3.2334  -3.2333  -3.1961  -3.1959  -3.0857  -3.0857
    -2.9982  -2.9981  -2.9681  -2.9681  -2.8117  -2.8117  -2.6365  -2.6364
    -2.5294  -2.5293  -2.4529  -2.4528  -2.3531  -2.3531  -1.6660  -1.6660
    -0.7311  -0.7311   0.5915   0.5915   1.9883   1.9883   3.4308   3.4309
     4.3173   4.3173

          k = 0.1250-0.0000 0.0000 ( 19806 PWs)   bands (ev):

   -44.9517 -44.9515 -44.4220 -44.4219 -44.3753 -44.3700  -4.4925  -4.0382
    -4.0075  -3.9631  -3.8958  -3.7856  -3.7749  -3.7428  -3.7354  -3.5834
    -3.4684  -3.4542  -3.4209  -3.4006  -3.3904  -3.1697  -3.1619  -3.1232
    -3.0785  -2.9291  -2.9027  -2.8851  -2.7685  -2.7427  -2.6973  -2.6860
    -2.6471  -2.6311  -2.6023  -2.5875  -2.5544  -2.4830  -2.1743  -1.6579
    -0.2877   1.1937   2.0149   2.1827   2.9021   3.9602   4.6532   5.1134
     5.2428   5.5895

          k = 0.1250 0.0884 0.0000 ( 19853 PWs)   bands (ev):

   -44.9517 -44.9516 -44.4221 -44.4219 -44.3752 -44.3702  -4.3963  -4.0703
    -3.9518  -3.8825  -3.8771  -3.7941  -3.7489  -3.7217  -3.7129  -3.5927
    -3.4641  -3.4464  -3.4412  -3.3646  -3.3362  -3.1871  -3.1779  -3.1262
    -3.0982  -2.9824  -2.8998  -2.8815  -2.7865  -2.7342  -2.7187  -2.6745
    -2.6500  -2.6369  -2.5909  -2.5897  -2.5820  -2.4751  -2.2784  -1.4471
    -0.1304   1.0285   1.8025   2.1416   2.3121   3.2059   4.3706   5.1041
     5.2888   5.6336

          k = 0.1250 0.1768 0.0000 ( 19851 PWs)   bands (ev):

   -44.9516 -44.9515 -44.4219 -44.4217 -44.3745 -44.3707  -4.1594  -4.0425
    -3.8632  -3.8120  -3.7963  -3.7897  -3.7013  -3.6915  -3.6186  -3.5800
    -3.4941  -3.4929  -3.3392  -3.3241  -3.2610  -3.2207  -3.2030  -3.1388
    -3.1213  -2.9936  -2.9035  -2.8762  -2.8166  -2.7717  -2.7553  -2.7379
    -2.6809  -2.6544  -2.6210  -2.6069  -2.5707  -2.5660  -2.0448  -0.9772
     0.0118   0.0975   1.2652   1.8128   2.1844   2.7145   3.1115   4.3808
     5.6248   5.6736

          k = 0.1250 0.2652 0.0000 ( 19897 PWs)   bands (ev):

   -44.9516 -44.9515 -44.4219 -44.4217 -44.3737 -44.3717  -3.9759  -3.9687
    -3.8341  -3.7647  -3.7397  -3.7150  -3.6612  -3.6484  -3.5808  -3.5335
    -3.5269  -3.3824  -3.3047  -3.3025  -3.2581  -3.2450  -3.1701  -3.1555
    -3.1316  -2.9961  -2.9437  -2.9371  -2.9125  -2.8604  -2.7998  -2.7006
    -2.6842  -2.6583  -2.5980  -2.5624  -2.5457  -2.3016  -1.4575  -1.1529
    -0.5064  -0.3838   0.7812   1.3213   1.8861   2.6929   3.2908   3.5786
     4.6959   5.7513

          k = 0.1250-0.3536 0.0000 ( 19884 PWs)   bands (ev):

   -44.9516 -44.9514 -44.4218 -44.4216 -44.3727 -44.3727  -3.9267  -3.9267
    -3.7746  -3.7744  -3.7326  -3.7324  -3.6601  -3.6601  -3.5433  -3.5432
    -3.3932  -3.3932  -3.2720  -3.2720  -3.2407  -3.2407  -3.1794  -3.1792
    -3.1178  -3.1178  -2.9787  -2.9786  -2.9323  -2.9323  -2.7409  -2.7408
    -2.6186  -2.6185  -2.5471  -2.5470  -2.1452  -2.1452  -1.5034  -1.5034
    -0.6064  -0.6064   0.8025   0.8025   2.1880   2.1880   3.6593   3.6593
     4.6175   4.6175

          k = 0.1250-0.2652 0.0000 ( 19897 PWs)   bands (ev):

   -44.9516 -44.9515 -44.4219 -44.4217 -44.3737 -44.3717  -3.9759  -3.9687
    -3.8341  -3.7647  -3.7397  -3.7150  -3.6612  -3.6484  -3.5808  -3.5335
    -3.5269  -3.3824  -3.3047  -3.3025  -3.2581  -3.2450  -3.1701  -3.1555
    -3.1316  -2.9961  -2.9437  -2.9371  -2.9125  -2.8604  -2.7998  -2.7006
    -2.6842  -2.6583  -2.5980  -2.5624  -2.5457  -2.3016  -1.4575  -1.1529
    -0.5064  -0.3838   0.7812   1.3213   1.8861   2.6929   3.2908   3.5786
     4.6959   5.7513

          k = 0.1250-0.1768 0.0000 ( 19851 PWs)   bands (ev):

   -44.9516 -44.9515 -44.4219 -44.4217 -44.3745 -44.3707  -4.1594  -4.0425
    -3.8632  -3.8120  -3.7963  -3.7897  -3.7013  -3.6915  -3.6186  -3.5800
    -3.4941  -3.4929  -3.3392  -3.3241  -3.2610  -3.2207  -3.2030  -3.1388
    -3.1213  -2.9936  -2.9035  -2.8762  -2.8166  -2.7717  -2.7553  -2.7379
    -2.6809  -2.6544  -2.6210  -2.6069  -2.5707  -2.5660  -2.0448  -0.9772
     0.0118   0.0975   1.2652   1.8128   2.1844   2.7145   3.1115   4.3808
     5.6248   5.6736

          k = 0.1250-0.0884 0.0000 ( 19853 PWs)   bands (ev):

   -44.9517 -44.9516 -44.4221 -44.4219 -44.3752 -44.3702  -4.3963  -4.0703
    -3.9518  -3.8825  -3.8771  -3.7941  -3.7489  -3.7217  -3.7129  -3.5927
    -3.4641  -3.4464  -3.4412  -3.3646  -3.3362  -3.1871  -3.1779  -3.1262
    -3.0982  -2.9824  -2.8998  -2.8815  -2.7865  -2.7342  -2.7187  -2.6745
    -2.6500  -2.6369  -2.5909  -2.5897  -2.5820  -2.4751  -2.2784  -1.4471
    -0.1304   1.0285   1.8025   2.1416   2.3121   3.2059   4.3706   5.1041
     5.2888   5.6336

          k = 0.2500-0.0000 0.0000 ( 19968 PWs)   bands (ev):

   -44.9501 -44.9499 -44.4204 -44.4201 -44.3735 -44.3683  -4.1967  -3.9983
    -3.8966  -3.7786  -3.7623  -3.6806  -3.5863  -3.5717  -3.5467  -3.4638
    -3.4483  -3.4158  -3.4131  -3.3499  -3.3199  -3.2717  -3.1483  -3.0643
    -2.9870  -2.9576  -2.9297  -2.8862  -2.8797  -2.8788  -2.8185  -2.8166
    -2.7854  -2.7572  -2.6051  -2.5692  -2.4376  -2.1520  -2.1051  -1.0175
     0.4163   1.9765   3.0514   3.3216   3.9928   4.6481   4.9835   4.9941
     5.2272   5.5436

          k = 0.2500 0.0884 0.0000 ( 19915 PWs)   bands (ev):

   -44.9499 -44.9498 -44.4202 -44.4200 -44.3732 -44.3684  -4.1107  -3.9409
    -3.9131  -3.7126  -3.6959  -3.6886  -3.5925  -3.5841  -3.5266  -3.4923
    -3.4223  -3.4136  -3.3621  -3.3269  -3.3149  -3.2765  -3.1458  -3.0481
    -2.9943  -2.9907  -2.9187  -2.8907  -2.8651  -2.8572  -2.8234  -2.8017
    -2.7802  -2.7480  -2.6122  -2.6053  -2.5014  -2.2691  -1.9757  -0.8661
     0.5271   1.8027   2.7472   3.1015   3.2501   3.9121   4.6299   4.7539
     4.8763   5.7542

          k = 0.2500 0.1768 0.0000 ( 19923 PWs)   bands (ev):

   -44.9499 -44.9498 -44.4201 -44.4199 -44.3726 -44.3690  -3.9262  -3.8764
    -3.7832  -3.6513  -3.6255  -3.6243  -3.6144  -3.5363  -3.5222  -3.5113
    -3.4000  -3.3874  -3.3247  -3.3071  -3.2477  -3.2450  -3.1332  -3.0600
    -3.0174  -2.9774  -2.9339  -2.9055  -2.8635  -2.8016  -2.7815  -2.7801
    -2.7611  -2.7370  -2.7002  -2.6899  -2.5210  -2.3979  -1.6190  -0.4780
     0.6538   0.7295   1.9965   2.4540   2.8998   3.3875   3.7773   4.3238
     4.7849   6.2071

          k = 0.2500 0.2652 0.0000 ( 19896 PWs)   bands (ev):

   -44.9498 -44.9497 -44.4200 -44.4198 -44.3717 -44.3698  -3.8073  -3.7974
    -3.6406  -3.6334  -3.6013  -3.5775  -3.5752  -3.5271  -3.5104  -3.3996
    -3.3916  -3.3433  -3.3154  -3.2535  -3.2098  -3.1481  -3.1152  -3.0659
    -3.0474  -2.9592  -2.9538  -2.9513  -2.9078  -2.8712  -2.8543  -2.8017
    -2.7889  -2.7750  -2.7636  -2.7449  -2.3209  -1.8705  -1.0296  -0.5180
    -0.0070   0.0135   1.3292   1.8958   2.3044   3.2992   3.5986   4.4769
     4.6867   6.4742

          k = 0.2500-0.3536 0.0000 ( 19900 PWs)   bands (ev):

   -44.9498 -44.9497 -44.4199 -44.4198 -44.3708 -44.3708  -3.7616  -3.7615
    -3.6410  -3.6410  -3.5759  -3.5759  -3.5412  -3.5412  -3.4346  -3.4345
    -3.3203  -3.3202  -3.2032  -3.2031  -3.1418  -3.1416  -3.1202  -3.1201
    -3.0610  -3.0610  -2.9646  -2.9645  -2.9344  -2.9343  -2.8872  -2.8872
    -2.8052  -2.8052  -2.7453  -2.7452  -1.5766  -1.5766  -1.0327  -1.0327
    -0.2302  -0.2302   1.2888   1.2888   2.6279   2.6279   4.1123   4.1123
     5.4550   5.4551

          k = 0.2500-0.2652 0.0000 ( 19896 PWs)   bands (ev):

   -44.9498 -44.9497 -44.4200 -44.4198 -44.3717 -44.3698  -3.8073  -3.7974
    -3.6406  -3.6334  -3.6013  -3.5775  -3.5752  -3.5271  -3.5104  -3.3996
    -3.3916  -3.3433  -3.3154  -3.2535  -3.2098  -3.1481  -3.1152  -3.0659
    -3.0474  -2.9592  -2.9538  -2.9513  -2.9078  -2.8712  -2.8543  -2.8017
    -2.7889  -2.7750  -2.7636  -2.7449  -2.3209  -1.8705  -1.0296  -0.5180
    -0.0070   0.0135   1.3292   1.8958   2.3044   3.2992   3.5986   4.4769
     4.6867   6.4744

          k = 0.2500-0.1768 0.0000 ( 19923 PWs)   bands (ev):

   -44.9499 -44.9498 -44.4201 -44.4199 -44.3726 -44.3690  -3.9262  -3.8764
    -3.7832  -3.6513  -3.6255  -3.6243  -3.6144  -3.5363  -3.5222  -3.5113
    -3.4000  -3.3874  -3.3247  -3.3071  -3.2477  -3.2450  -3.1332  -3.0600
    -3.0174  -2.9774  -2.9339  -2.9055  -2.8635  -2.8016  -2.7815  -2.7801
    -2.7611  -2.7370  -2.7002  -2.6899  -2.5210  -2.3979  -1.6190  -0.4780
     0.6538   0.7295   1.9965   2.4540   2.8998   3.3875   3.7773   4.3238
     4.7849   6.2071

          k = 0.2500-0.0884 0.0000 ( 19915 PWs)   bands (ev):

   -44.9499 -44.9498 -44.4202 -44.4200 -44.3732 -44.3684  -4.1107  -3.9409
    -3.9131  -3.7126  -3.6959  -3.6886  -3.5925  -3.5841  -3.5266  -3.4923
    -3.4223  -3.4136  -3.3621  -3.3269  -3.3149  -3.2765  -3.1458  -3.0481
    -2.9943  -2.9907  -2.9187  -2.8907  -2.8651  -2.8572  -2.8234  -2.8017
    -2.7802  -2.7480  -2.6122  -2.6053  -2.5014  -2.2691  -1.9757  -0.8661
     0.5271   1.8027   2.7472   3.1015   3.2501   3.9121   4.6299   4.7539
     4.8764   5.7542

          k = 0.3750-0.0000 0.0000 ( 19934 PWs)   bands (ev):

   -44.9481 -44.9480 -44.4183 -44.4181 -44.3714 -44.3663  -4.0641  -3.9888
    -3.9083  -3.8977  -3.8265  -3.7858  -3.7568  -3.7405  -3.6800  -3.6078
    -3.5906  -3.5631  -3.4096  -3.3179  -3.3130  -3.2660  -3.2215  -3.1483
    -3.0976  -3.0752  -3.0223  -2.7948  -2.7704  -2.6752  -2.5459  -2.5456
    -2.4059  -2.3697  -2.3035  -2.1340  -1.8101  -1.4709  -0.8529   0.1745
     1.5841   2.2343   2.6352   3.1789   3.3126   4.2327   4.5010   4.8702
     5.2871   5.5300

          k = 0.3750 0.0884 0.0000 ( 19943 PWs)   bands (ev):

   -44.9481 -44.9480 -44.4183 -44.4181 -44.3713 -44.3665  -3.9864  -3.9344
    -3.9098  -3.8988  -3.8296  -3.7901  -3.7596  -3.6822  -3.6157  -3.6123
    -3.5936  -3.5481  -3.3641  -3.3452  -3.2754  -3.2068  -3.1936  -3.1652
    -3.0869  -3.0351  -3.0139  -2.9015  -2.6848  -2.6818  -2.6287  -2.5753
    -2.3890  -2.3867  -2.3001  -2.1948  -1.7457  -1.4214  -0.7892   0.2617
     1.6566   2.3073   2.6541   3.0219   3.2171   3.7844   4.0224   4.0403
     4.6899   6.1733

          k = 0.3750 0.1768 0.0000 ( 19944 PWs)   bands (ev):

   -44.9481 -44.9480 -44.4182 -44.4180 -44.3707 -44.3671  -3.9224  -3.9159
    -3.8198  -3.7974  -3.7814  -3.7768  -3.7506  -3.5856  -3.5825  -3.5506
    -3.5306  -3.5246  -3.3149  -3.3057  -3.2343  -3.1556  -3.1042  -3.0975
    -3.0679  -2.9935  -2.9842  -2.9280  -2.7575  -2.7281  -2.6951  -2.6344
    -2.4694  -2.3829  -2.3124  -2.2790  -1.5371  -1.2340  -0.5673   0.5146
     1.7139   1.8925   2.5236   2.6577   2.7101   2.9415   2.9979   3.8065
     5.1488   5.7992

          k = 0.3750 0.2652 0.0000 ( 19919 PWs)   bands (ev):

   -44.9481 -44.9479 -44.4181 -44.4179 -44.3699 -44.3680  -3.9315  -3.9257
    -3.7940  -3.7919  -3.7020  -3.6919  -3.6138  -3.5571  -3.5238  -3.4920
    -3.4864  -3.3419  -3.3033  -3.2205  -3.1504  -3.1322  -3.0990  -3.0502
    -3.0190  -2.9847  -2.9328  -2.8902  -2.8535  -2.8345  -2.7649  -2.6800
    -2.4640  -2.4304  -2.3489  -2.3237  -1.1258  -0.8054  -0.1163   0.6103
     0.8676   0.9554   1.8431   2.3147   2.5670   2.7814   2.9338   3.7845
     5.5026   5.5378

          k = 0.3750-0.3536 0.0000 ( 19954 PWs)   bands (ev):

   -44.9481 -44.9480 -44.4182 -44.4180 -44.3690 -44.3690  -3.9327  -3.9327
    -3.7952  -3.7952  -3.6510  -3.6509  -3.5947  -3.5947  -3.4845  -3.4845
    -3.2943  -3.2942  -3.2395  -3.2394  -3.0958  -3.0956  -3.0821  -3.0820
    -3.0421  -3.0420  -2.9348  -2.9348  -2.8895  -2.8894  -2.6707  -2.6706
    -2.4644  -2.4643  -2.3587  -2.3587  -0.4204  -0.4204  -0.0564  -0.0564
     0.5721   0.5721   1.7428   1.7428   2.7169   2.7170   3.4036   3.4036
     5.4106   5.4107

          k = 0.3750-0.2652 0.0000 ( 19919 PWs)   bands (ev):

   -44.9481 -44.9479 -44.4181 -44.4179 -44.3699 -44.3680  -3.9315  -3.9257
    -3.7940  -3.7919  -3.7020  -3.6919  -3.6138  -3.5571  -3.5238  -3.4920
    -3.4864  -3.3419  -3.3033  -3.2205  -3.1504  -3.1322  -3.0990  -3.0502
    -3.0190  -2.9847  -2.9328  -2.8902  -2.8535  -2.8345  -2.7649  -2.6800
    -2.4640  -2.4304  -2.3489  -2.3237  -1.1258  -0.8054  -0.1163   0.6103
     0.8676   0.9554   1.8431   2.3147   2.5670   2.7814   2.9338   3.7845
     5.5023   5.5372

          k = 0.3750-0.1768 0.0000 ( 19944 PWs)   bands (ev):

   -44.9481 -44.9480 -44.4182 -44.4180 -44.3707 -44.3671  -3.9224  -3.9159
    -3.8198  -3.7974  -3.7814  -3.7768  -3.7506  -3.5856  -3.5825  -3.5506
    -3.5306  -3.5246  -3.3149  -3.3057  -3.2343  -3.1555  -3.1042  -3.0975
    -3.0679  -2.9935  -2.9842  -2.9280  -2.7575  -2.7281  -2.6951  -2.6344
    -2.4694  -2.3829  -2.3124  -2.2790  -1.5371  -1.2340  -0.5673   0.5146
     1.7139   1.8925   2.5236   2.6577   2.7101   2.9415   2.9979   3.8065
     5.1488   5.7992

          k = 0.3750-0.0884 0.0000 ( 19943 PWs)   bands (ev):

   -44.9481 -44.9480 -44.4183 -44.4181 -44.3713 -44.3665  -3.9864  -3.9343
    -3.9098  -3.8988  -3.8296  -3.7901  -3.7596  -3.6822  -3.6157  -3.6123
    -3.5936  -3.5481  -3.3641  -3.3452  -3.2754  -3.2068  -3.1936  -3.1652
    -3.0869  -3.0351  -3.0139  -2.9015  -2.6848  -2.6818  -2.6287  -2.5753
    -2.3890  -2.3867  -2.3001  -2.1948  -1.7457  -1.4214  -0.7892   0.2617
     1.6566   2.3073   2.6541   3.0219   3.2171   3.7844   4.0224   4.0403
     4.6899   6.1732

          k =-0.5000 0.0000 0.0000 ( 19974 PWs)   bands (ev):

   -44.9474 -44.9473 -44.4176 -44.4173 -44.3708 -44.3653  -4.0246  -4.0213
    -4.0181  -3.9843  -3.8850  -3.8674  -3.7956  -3.7328  -3.6632  -3.6502
    -3.6302  -3.5622  -3.4258  -3.4009  -3.3998  -3.2522  -3.2477  -3.2017
    -3.1720  -3.1558  -3.1019  -2.7813  -2.7134  -2.6483  -2.5334  -2.4041
    -2.3941  -2.1521  -2.1270  -2.0477  -0.1573   0.0711   0.2228   0.5842
     0.7494   1.5379   1.5483   2.5382   2.9737   3.6666   4.6801   4.8986
     5.8085   6.1448

          k =-0.5000 0.0884 0.0000 ( 19948 PWs)   bands (ev):

   -44.9474 -44.9472 -44.4175 -44.4173 -44.3705 -44.3656  -4.0262  -4.0227
    -3.9438  -3.9231  -3.8932  -3.8637  -3.7955  -3.6841  -3.6749  -3.6287
    -3.5636  -3.5575  -3.4464  -3.3731  -3.3506  -3.2485  -3.1794  -3.1758
    -3.1738  -3.1157  -3.0895  -2.8824  -2.6593  -2.6262  -2.5694  -2.5561
    -2.2709  -2.2611  -2.0776  -2.0604  -0.1220   0.1072   0.3332   0.6304
     0.8045   1.5395   1.6063   2.4566   3.0568   3.4801   4.5125   4.6488
     5.1344   5.6453

          k =-0.5000 0.1768 0.0000 ( 19956 PWs)   bands (ev):

   -44.9474 -44.9472 -44.4175 -44.4172 -44.3700 -44.3663  -4.0336  -4.0297
    -3.8947  -3.8787  -3.7772  -3.7535  -3.7403  -3.6641  -3.6544  -3.5161
    -3.5024  -3.4852  -3.4056  -3.4043  -3.2182  -3.1937  -3.1588  -3.1172
    -3.0675  -3.0615  -3.0548  -2.9157  -2.7153  -2.7034  -2.6769  -2.5792
    -2.3772  -2.1716  -2.1026  -2.0636   0.0110   0.2437   0.6556   0.7864
     0.9755   1.5302   1.7825   2.2452   3.0050   3.0660   3.2749   3.6637
     4.3586   4.9490

          k =-0.5000 0.2652 0.0000 ( 19924 PWs)   bands (ev):

   -44.9473 -44.9472 -44.4174 -44.4172 -44.3691 -44.3672  -4.0418  -4.0352
    -3.8973  -3.8880  -3.6921  -3.6575  -3.6473  -3.6300  -3.5134  -3.4469
    -3.4468  -3.4210  -3.3238  -3.2886  -3.2002  -3.1078  -3.0979  -3.0961
    -3.0551  -3.0353  -3.0052  -2.8694  -2.8358  -2.8176  -2.7259  -2.5750
    -2.2767  -2.2456  -2.1101  -2.0733   0.3219   0.5677   1.0966   1.1652
     1.2685   1.5597   1.8359   1.9929   1.9931   2.1956   2.4293   2.7509
     4.0007   4.3619

          k =-0.5000-0.3536 0.0000 ( 19904 PWs)   bands (ev):

   -44.9473 -44.9471 -44.4173 -44.4171 -44.3681 -44.3681  -4.0414  -4.0414
    -3.8945  -3.8945  -3.6704  -3.6704  -3.6043  -3.6042  -3.4253  -3.4253
    -3.3768  -3.3768  -3.2500  -3.2500  -3.1397  -3.1396  -3.0790  -3.0789
    -3.0423  -3.0422  -3.0062  -3.0062  -2.8712  -2.8710  -2.5595  -2.5594
    -2.2814  -2.2814  -2.0948  -2.0948   0.9249   0.9249   1.1784   1.1785
     1.5577   1.5578   1.6278   1.6279   1.7783   1.7783   2.0733   2.0734
     3.9987   3.9988

     the Fermi energy is     1.4512 ev

!    total energy              =    -595.09103667 Ry
     estimated scf accuracy    <       0.00000015 Ry
     smearing contrib. (-TS)   =       0.00166297 Ry
     internal energy E=F+TS    =    -595.09269964 Ry

     The total energy is F=E-TS. E is the sum of the following terms:
     one-electron contribution =   -6006.41888252 Ry
     hartree contribution      =    3043.01974875 Ry
     xc contribution           =    -155.76458171 Ry
     ewald contribution        =    2524.28826285 Ry
     DFT-D3 Dispersion         =      -0.21724701 Ry

     convergence has been achieved in  12 iterations

     negative rho (up, down):  2.386E-05 0.000E+00

     Forces acting on atoms (cartesian axes, Ry/au):

     atom    1 type  1   force =    -0.00000046    0.00000126   -0.01048492
     atom    2 type  1   force =     0.00000073   -0.00000233   -0.00396045
     atom    3 type  1   force =    -0.00000006    0.00000005   -0.00032194
     atom    4 type  1   force =    -0.00000095   -0.00000035    0.00039197
     atom    5 type  1   force =    -0.00000027   -0.00000084    0.00402119
     atom    6 type  1   force =     0.00000047    0.00000106    0.01040648
     atom    7 type  2   force =     0.00000028    0.00000029    0.00673086
     atom    8 type  2   force =     0.00000009   -0.00000047    0.00412273
     atom    9 type  2   force =    -0.00000008    0.00000014    0.00028376
     atom   10 type  2   force =    -0.00000013    0.00000025   -0.00029051
     atom   11 type  2   force =     0.00000013    0.00000070   -0.00413413
     atom   12 type  2   force =     0.00000025    0.00000026   -0.00676503
     The non-local contrib.  to forces
     atom    1 type  1   force =    -0.00000149    0.00000024    0.05756248
     atom    2 type  1   force =     0.00000117   -0.00000329   -0.00179222
     atom    3 type  1   force =     0.00000029    0.00000048   -0.00300105
     atom    4 type  1   force =    -0.00000105   -0.00000103    0.00306919
     atom    5 type  1   force =     0.00000017   -0.00000088    0.00183921
     atom    6 type  1   force =     0.00000043    0.00000038   -0.05759698
     atom    7 type  2   force =    -0.00000436   -0.00000000    0.03867642
     atom    8 type  2   force =    -0.00000393   -0.00000046    0.00662704
     atom    9 type  2   force =    -0.00000405   -0.00000009    0.00042518
     atom   10 type  2   force =    -0.00000398    0.00000017   -0.00040650
     atom   11 type  2   force =    -0.00000392    0.00000024   -0.00661034
     atom   12 type  2   force =    -0.00000421    0.00000021   -0.03868173
     The ionic contribution  to forces
     atom    1 type  1   force =     0.00000000    0.00000000  110.80054562
     atom    2 type  1   force =     0.00000000   -0.00000000   67.66085967
     atom    3 type  1   force =    -0.00000000   -0.00000000   22.52008321
     atom    4 type  1   force =     0.00000000   -0.00000000  -22.52008321
     atom    5 type  1   force =    -0.00000000    0.00000000  -67.66085967
     atom    6 type  1   force =     0.00000000   -0.00000000 -110.80054562
     atom    7 type  2   force =     0.00000000   -0.00000000   30.92511243
     atom    8 type  2   force =     0.00000000    0.00000000   18.40566825
     atom    9 type  2   force =     0.00000000   -0.00000000    6.14377783
     atom   10 type  2   force =     0.00000000    0.00000000   -6.14377783
     atom   11 type  2   force =     0.00000000   -0.00000000  -18.40566825
     atom   12 type  2   force =     0.00000000   -0.00000000  -30.92511243
     The local contribution  to forces
     atom    1 type  1   force =    -0.00000003    0.00000036 -110.86030485
     atom    2 type  1   force =    -0.00000037    0.00000184  -67.66012239
     atom    3 type  1   force =    -0.00000081   -0.00000067  -22.51722523
     atom    4 type  1   force =     0.00000132    0.00000059   22.51672469
     atom    5 type  1   force =     0.00000066    0.00000116   67.65969434
     atom    6 type  1   force =    -0.00000054    0.00000081  110.86050311
     atom    7 type  2   force =     0.00000510   -0.00000034  -30.95496349
     atom    8 type  2   force =     0.00000431   -0.00000021  -18.40653207
     atom    9 type  2   force =     0.00000401    0.00000031   -6.14370089
     atom   10 type  2   force =     0.00000386   -0.00000004    6.14355196
     atom   11 type  2   force =     0.00000399    0.00000036   18.40641700
     atom   12 type  2   force =     0.00000438   -0.00000048   30.95500742
     The core correction contribution to forces
     atom    1 type  1   force =    -0.00000001   -0.00000004   -0.00452527
     atom    2 type  1   force =    -0.00000002    0.00000012    0.00016318
     atom    3 type  1   force =    -0.00000001   -0.00000000    0.00003051
     atom    4 type  1   force =     0.00000008    0.00000000   -0.00003164
     atom    5 type  1   force =     0.00000003    0.00000009   -0.00016691
     atom    6 type  1   force =    -0.00000005   -0.00000002    0.00452939
     atom    7 type  2   force =     0.00000000    0.00000000    0.00000000
     atom    8 type  2   force =     0.00000000    0.00000000    0.00000000
     atom    9 type  2   force =     0.00000000    0.00000000    0.00000000
     atom   10 type  2   force =     0.00000000    0.00000000    0.00000000
     atom   11 type  2   force =     0.00000000    0.00000000    0.00000000
     atom   12 type  2   force =     0.00000000    0.00000000    0.00000000
     The Hubbard contrib.    to forces
     atom    1 type  1   force =     0.00000000    0.00000000    0.00000000
     atom    2 type  1   force =     0.00000000    0.00000000    0.00000000
     atom    3 type  1   force =     0.00000000    0.00000000    0.00000000
     atom    4 type  1   force =     0.00000000    0.00000000    0.00000000
     atom    5 type  1   force =     0.00000000    0.00000000    0.00000000
     atom    6 type  1   force =     0.00000000    0.00000000    0.00000000
     atom    7 type  2   force =     0.00000000    0.00000000    0.00000000
     atom    8 type  2   force =     0.00000000    0.00000000    0.00000000
     atom    9 type  2   force =     0.00000000    0.00000000    0.00000000
     atom   10 type  2   force =     0.00000000    0.00000000    0.00000000
     atom   11 type  2   force =     0.00000000    0.00000000    0.00000000
     atom   12 type  2   force =     0.00000000    0.00000000    0.00000000
     The SCF correction term to forces
     atom    1 type  1   force =     0.00000113    0.00000058   -0.00002051
     atom    2 type  1   force =    -0.00000000   -0.00000112    0.00055915
     atom    3 type  1   force =     0.00000000    0.00000000    0.00000000
     atom    4 type  1   force =    -0.00000000   -0.00000000    0.00000000
     atom    5 type  1   force =    -0.00000000   -0.00000000   -0.00000000
     atom    6 type  1   force =     0.00000000   -0.00000000   -0.00000000
     atom    7 type  2   force =    -0.00000042    0.00000053    0.00010747
     atom    8 type  2   force =    -0.00000025    0.00000008    0.00010639
     atom    9 type  2   force =     0.00000000   -0.00000000    0.00000000
     atom   10 type  2   force =     0.00000000   -0.00000000    0.00000000
     atom   11 type  2   force =     0.00000000   -0.00000000    0.00000000
     atom   12 type  2   force =     0.00000000    0.00000000   -0.00000000

     DFT-D3 dispersion contribution to forces:
     atom    1 type  1   force =     0.00000000   -0.00000000   -0.00372799
     atom    2 type  1   force =     0.00000000    0.00000000   -0.00361345
     atom    3 type  1   force =     0.00000000   -0.00000000   -0.00047446
     atom    4 type  1   force =     0.00000000    0.00000000    0.00047446
     atom    5 type  1   force =     0.00000000   -0.00000000    0.00361345
     atom    6 type  1   force =     0.00000000    0.00000000    0.00372799
     atom    7 type  2   force =    -0.00000000   -0.00000000   -0.00218755
     atom    8 type  2   force =    -0.00000000   -0.00000000   -0.00173248
     atom    9 type  2   force =    -0.00000000    0.00000000   -0.00025939
     atom   10 type  2   force =    -0.00000000   -0.00000000    0.00025939
     atom   11 type  2   force =    -0.00000000   -0.00000000    0.00173248
     atom   12 type  2   force =    -0.00000000    0.00000000    0.00218755

     Total force =     0.013708     Total SCF correction =     0.000580


     Computing stress (Cartesian axis) and pressure


     negative rho (up, down):  2.386E-05 0.000E+00
          total   stress  (Ry/bohr**3)                   (kbar)     P=      -11.94
  -0.00009040   0.00000000   0.00000000          -13.30        0.00        0.00
   0.00000000  -0.00007111   0.00000000            0.00      -10.46        0.00
   0.00000000   0.00000000  -0.00008199            0.00        0.00      -12.06


     BFGS Geometry Optimization
     Energy error            =      0.0E+00 Ry
     Gradient error          =      1.0E-02 Ry/Bohr

     number of scf cycles    =   1
     number of bfgs steps    =   0

     energy             new  =    -595.0910366696 Ry

     new trust radius        =       0.0104849192 bohr
     new conv_thr            =       0.0000010000 Ry


ATOMIC_POSITIONS (angstrom)
Ag            0.7806848401        1.1040560983       21.0350059359
Ag            0.7806854695        3.3121650600       18.8303476729
Ag            0.7806850825        1.1040554316       16.6243325897    0   0   0
Ag            0.7806850825        3.3121662948       14.4162217265    0   0   0
Ag            0.7806850825        1.1040554316       12.2081108632    0   0   0
Ag            0.7806850825        3.3121662948       10.0000000000    0   0   0
Li            2.3420553937        3.3121664488       21.0441161349
Li            2.3420552947        1.1040551835       18.8346251067
Li            2.3420552475        3.3121662948       16.6243325897    0   0   0
Li            2.3420552475        1.1040554316       14.4162217265    0   0   0
Li            2.3420552475        3.3121662948       12.2081108632    0   0   0
Li            2.3420552475        1.1040554316       10.0000000000    0   0   0



     Writing config-only to output data dir ./LiAg_110/LiAg_110.save/
     NEW-OLD atomic charge density approx. for the potential

     negative rho (up, down):  2.392E-05 0.000E+00

     total cpu time spent up to now is       19.5 secs

     per-process dynamical memory:   186.9 Mb

     Self-consistent Calculation

     iteration #  1     ecut=    55.00 Ry     beta= 0.30
     Davidson diagonalization with overlap
     ethr =  1.00E-06,  avg # of iterations =  3.5

     Threshold (ethr) on eigenvalues was too large:
     Diagonalizing with lowered threshold

     Davidson diagonalization with overlap
     ethr =  1.01E-08,  avg # of iterations =  4.1

     negative rho (up, down):  2.389E-05 0.000E+00

     total cpu time spent up to now is       21.0 secs

     total energy              =    -595.09121576 Ry
     estimated scf accuracy    <       0.00000810 Ry

     iteration #  2     ecut=    55.00 Ry     beta= 0.30
     Davidson diagonalization with overlap
     ethr =  9.65E-09,  avg # of iterations =  2.6

     negative rho (up, down):  2.399E-05 0.000E+00

     total cpu time spent up to now is       21.6 secs

     total energy              =    -595.09119971 Ry
     estimated scf accuracy    <       0.00078880 Ry

     iteration #  3     ecut=    55.00 Ry     beta= 0.30
     Davidson diagonalization with overlap
     ethr =  9.65E-09,  avg # of iterations =  2.1

     negative rho (up, down):  2.402E-05 0.000E+00

     total cpu time spent up to now is       22.1 secs

     total energy              =    -595.09121888 Ry
     estimated scf accuracy    <       0.00000129 Ry

     iteration #  4     ecut=    55.00 Ry     beta= 0.30
     Davidson diagonalization with overlap
     ethr =  1.54E-09,  avg # of iterations =  3.1

     negative rho (up, down):  2.400E-05 0.000E+00

     total cpu time spent up to now is       22.6 secs

     total energy              =    -595.09121893 Ry
     estimated scf accuracy    <       0.00000208 Ry

     iteration #  5     ecut=    55.00 Ry     beta= 0.30
     Davidson diagonalization with overlap
     ethr =  1.54E-09,  avg # of iterations =  1.2

     negative rho (up, down):  2.386E-05 0.000E+00

     total cpu time spent up to now is       23.1 secs

     End of self-consistent calculation

          k = 0.0000 0.0000 0.0000 ( 19753 PWs)   bands (ev):

   -44.9531 -44.9498 -44.4211 -44.4208 -44.3733 -44.3681  -4.6993  -4.2966
    -4.0223  -4.0111  -3.9894  -3.9597  -3.8589  -3.7799  -3.7719  -3.7677
    -3.6609  -3.6315  -3.4715  -3.4114  -3.3923  -2.9701  -2.9692  -2.9608
    -2.9086  -2.8812  -2.7966  -2.7681  -2.7573  -2.7157  -2.6555  -2.6535
    -2.5875  -2.5686  -2.5463  -2.5228  -2.4995  -2.4850  -2.1863  -1.8852
    -0.5449   0.9063   1.6209   1.7410   2.4907   3.5812   4.4752   4.8753
     4.8915   5.3631

          k = 0.0000 0.0884 0.0000 ( 19735 PWs)   bands (ev):

   -44.9530 -44.9497 -44.4209 -44.4208 -44.3731 -44.3681  -4.6099  -4.2835
    -4.0003  -3.9842  -3.9694  -3.9559  -3.8081  -3.7856  -3.7763  -3.7286
    -3.6652  -3.6522  -3.4526  -3.3677  -3.3332  -3.0387  -2.9879  -2.9869
    -2.9148  -2.8959  -2.7984  -2.7651  -2.7368  -2.6771  -2.6684  -2.6673
    -2.6334  -2.5929  -2.5693  -2.5444  -2.4868  -2.4814  -2.3158  -1.6421
    -0.3616   0.7393   1.4331   1.7511   1.9639   2.9027   4.1210   4.8876
     5.0457   5.4629

          k = 0.0000 0.1768 0.0000 ( 19834 PWs)   bands (ev):

   -44.9531 -44.9498 -44.4210 -44.4209 -44.3727 -44.3688  -4.3860  -4.2341
    -4.0295  -3.9331  -3.9256  -3.8409  -3.8021  -3.7732  -3.7325  -3.6903
    -3.6830  -3.5886  -3.3463  -3.3292  -3.2401  -3.0348  -3.0294  -3.0291
    -2.9337  -2.9315  -2.8293  -2.8005  -2.7930  -2.7837  -2.7652  -2.6968
    -2.6552  -2.6408  -2.5478  -2.5383  -2.4726  -2.4674  -2.1774  -1.1440
    -0.2552  -0.0797   0.9523   1.5272   1.9225   2.3626   2.9053   4.2269
     5.4065   5.4326

          k = 0.0000 0.2652 0.0000 ( 19874 PWs)   bands (ev):

   -44.9531 -44.9498 -44.4209 -44.4208 -44.3719 -44.3697  -4.1721  -4.1591
    -4.0501  -3.9156  -3.8760  -3.8660  -3.7863  -3.7464  -3.6826  -3.6715
    -3.5864  -3.3912  -3.3054  -3.2998  -3.1731  -3.0724  -3.0678  -3.0119
    -2.9791  -2.9604  -2.9545  -2.9320  -2.8208  -2.8193  -2.7816  -2.6731
    -2.6033  -2.5572  -2.5143  -2.4647  -2.4587  -2.4527  -1.6035  -1.3826
    -0.6758  -0.5048   0.5401   1.0781   1.6996   2.4292   3.1281   3.2448
     4.5245   5.4613

          k = 0.0000-0.3536 0.0000 ( 19864 PWs)   bands (ev):

   -44.9531 -44.9498 -44.4208 -44.4207 -44.3710 -44.3705  -4.1057  -4.1056
    -4.0040  -4.0038  -3.8559  -3.8552  -3.7804  -3.7780  -3.6667  -3.6663
    -3.3974  -3.3973  -3.2343  -3.2321  -3.1954  -3.1948  -3.0848  -3.0847
    -3.0003  -2.9968  -2.9676  -2.9671  -2.8111  -2.8107  -2.6359  -2.6355
    -2.5282  -2.5281  -2.4544  -2.4515  -2.3530  -2.3519  -1.6654  -1.6651
    -0.7306  -0.7293   0.5919   0.5924   1.9892   1.9916   3.4343   3.4344
     4.3182   4.3198

          k = 0.1250-0.0000 0.0000 ( 19806 PWs)   bands (ev):

   -44.9524 -44.9491 -44.4203 -44.4202 -44.3726 -44.3673  -4.4921  -4.0381
    -4.0071  -3.9625  -3.8946  -3.7849  -3.7749  -3.7429  -3.7345  -3.5828
    -3.4683  -3.4541  -3.4203  -3.4007  -3.3902  -3.1689  -3.1604  -3.1228
    -3.0771  -2.9280  -2.9023  -2.8852  -2.7678  -2.7418  -2.6957  -2.6851
    -2.6458  -2.6295  -2.6031  -2.5875  -2.5531  -2.4820  -2.1725  -1.6567
    -0.2856   1.1965   2.0168   2.1836   2.9025   3.9612   4.6543   5.1127
     5.2446   5.5892

          k = 0.1250 0.0884 0.0000 ( 19853 PWs)   bands (ev):

   -44.9525 -44.9492 -44.4203 -44.4202 -44.3725 -44.3675  -4.3959  -4.0700
    -3.9513  -3.8814  -3.8765  -3.7937  -3.7486  -3.7218  -3.7121  -3.5919
    -3.4641  -3.4460  -3.4410  -3.3643  -3.3363  -3.1860  -3.1769  -3.1254
    -3.0972  -2.9816  -2.8995  -2.8807  -2.7859  -2.7335  -2.7172  -2.6735
    -2.6488  -2.6351  -2.5911  -2.5893  -2.5818  -2.4742  -2.2768  -1.4458
    -0.1282   1.0308   1.8039   2.1428   2.3132   3.2070   4.3722   5.1042
     5.2884   5.6355

          k = 0.1250 0.1768 0.0000 ( 19851 PWs)   bands (ev):

   -44.9524 -44.9491 -44.4202 -44.4201 -44.3719 -44.3681  -4.1589  -4.0419
    -3.8622  -3.8109  -3.7957  -3.7889  -3.7014  -3.6906  -3.6176  -3.5799
    -3.4953  -3.4919  -3.3389  -3.3244  -3.2602  -3.2197  -3.2019  -3.1378
    -3.1208  -2.9930  -2.9031  -2.8756  -2.8156  -2.7712  -2.7543  -2.7368
    -2.6800  -2.6532  -2.6201  -2.6058  -2.5712  -2.5656  -2.0441  -0.9758
     0.0132   0.0995   1.2657   1.8138   2.1866   2.7158   3.1137   4.3833
     5.6241   5.6732

          k = 0.1250 0.2652 0.0000 ( 19897 PWs)   bands (ev):

   -44.9524 -44.9491 -44.4202 -44.4200 -44.3710 -44.3690  -3.9751  -3.9680
    -3.8328  -3.7634  -3.7385  -3.7141  -3.6601  -3.6480  -3.5799  -3.5346
    -3.5270  -3.3820  -3.3041  -3.3025  -3.2571  -3.2441  -3.1692  -3.1547
    -3.1311  -2.9951  -2.9440  -2.9365  -2.9121  -2.8597  -2.7990  -2.7000
    -2.6834  -2.6570  -2.5964  -2.5627  -2.5455  -2.3014  -1.4566  -1.1517
    -0.5055  -0.3822   0.7818   1.3222   1.8880   2.6947   3.2942   3.5805
     4.6989   5.7527

          k = 0.1250-0.3536 0.0000 ( 19884 PWs)   bands (ev):

   -44.9523 -44.9490 -44.4201 -44.4200 -44.3702 -44.3698  -3.9259  -3.9258
    -3.7730  -3.7729  -3.7312  -3.7311  -3.6597  -3.6592  -3.5459  -3.5419
    -3.3926  -3.3923  -3.2715  -3.2709  -3.2406  -3.2399  -3.1794  -3.1780
    -3.1171  -3.1167  -2.9808  -2.9774  -2.9321  -2.9313  -2.7401  -2.7401
    -2.6177  -2.6171  -2.5482  -2.5457  -2.1450  -2.1440  -1.5030  -1.5024
    -0.6056  -0.6047   0.8029   0.8034   2.1889   2.1913   3.6626   3.6627
     4.6180   4.6200

          k = 0.1250-0.2652 0.0000 ( 19897 PWs)   bands (ev):

   -44.9524 -44.9491 -44.4202 -44.4200 -44.3710 -44.3690  -3.9751  -3.9680
    -3.8328  -3.7634  -3.7385  -3.7141  -3.6601  -3.6480  -3.5799  -3.5346
    -3.5270  -3.3820  -3.3041  -3.3025  -3.2571  -3.2441  -3.1692  -3.1547
    -3.1311  -2.9951  -2.9440  -2.9365  -2.9121  -2.8597  -2.7990  -2.7000
    -2.6834  -2.6570  -2.5964  -2.5627  -2.5455  -2.3014  -1.4566  -1.1517
    -0.5055  -0.3822   0.7818   1.3222   1.8880   2.6947   3.2942   3.5805
     4.6989   5.7527

          k = 0.1250-0.1768 0.0000 ( 19851 PWs)   bands (ev):

   -44.9524 -44.9491 -44.4202 -44.4201 -44.3719 -44.3681  -4.1589  -4.0419
    -3.8622  -3.8109  -3.7957  -3.7889  -3.7014  -3.6906  -3.6176  -3.5799
    -3.4953  -3.4919  -3.3389  -3.3244  -3.2602  -3.2197  -3.2019  -3.1378
    -3.1208  -2.9930  -2.9031  -2.8756  -2.8156  -2.7712  -2.7543  -2.7368
    -2.6800  -2.6532  -2.6201  -2.6058  -2.5712  -2.5656  -2.0441  -0.9758
     0.0132   0.0995   1.2657   1.8138   2.1866   2.7158   3.1137   4.3833
     5.6241   5.6732

          k = 0.1250-0.0884 0.0000 ( 19853 PWs)   bands (ev):

   -44.9525 -44.9492 -44.4203 -44.4202 -44.3725 -44.3675  -4.3959  -4.0700
    -3.9513  -3.8814  -3.8765  -3.7937  -3.7486  -3.7218  -3.7121  -3.5919
    -3.4641  -3.4460  -3.4410  -3.3643  -3.3363  -3.1860  -3.1769  -3.1254
    -3.0972  -2.9816  -2.8995  -2.8807  -2.7859  -2.7335  -2.7172  -2.6735
    -2.6488  -2.6351  -2.5911  -2.5893  -2.5818  -2.4742  -2.2768  -1.4458
    -0.1282   1.0308   1.8039   2.1428   2.3132   3.2070   4.3722   5.1042
     5.2884   5.6355

          k = 0.2500-0.0000 0.0000 ( 19968 PWs)   bands (ev):

   -44.9508 -44.9475 -44.4186 -44.4185 -44.3709 -44.3656  -4.1965  -3.9979
    -3.8961  -3.7789  -3.7624  -3.6807  -3.5850  -3.5709  -3.5458  -3.4634
    -3.4477  -3.4152  -3.4128  -3.3492  -3.3192  -3.2708  -3.1484  -3.0640
    -2.9861  -2.9564  -2.9286  -2.8852  -2.8796  -2.8776  -2.8181  -2.8162
    -2.7855  -2.7565  -2.6040  -2.5674  -2.4364  -2.1502  -2.1043  -1.0162
     0.4187   1.9795   3.0532   3.3225   3.9933   4.6491   4.9845   4.9951
     5.2279   5.5447

          k = 0.2500 0.0884 0.0000 ( 19915 PWs)   bands (ev):

   -44.9507 -44.9474 -44.4184 -44.4184 -44.3706 -44.3657  -4.1104  -3.9404
    -3.9127  -3.7127  -3.6962  -3.6885  -3.5915  -3.5830  -3.5259  -3.4915
    -3.4220  -3.4132  -3.3613  -3.3264  -3.3141  -3.2758  -3.1457  -3.0481
    -2.9935  -2.9900  -2.9174  -2.8905  -2.8640  -2.8561  -2.8230  -2.8007
    -2.7802  -2.7473  -2.6113  -2.6036  -2.5004  -2.2675  -1.9749  -0.8648
     0.5295   1.8056   2.7481   3.1026   3.2513   3.9131   4.6311   4.7551
     4.8774   5.7541

          k = 0.2500 0.1768 0.0000 ( 19923 PWs)   bands (ev):

   -44.9507 -44.9474 -44.4184 -44.4182 -44.3700 -44.3663  -3.9258  -3.8758
    -3.7826  -3.6512  -3.6257  -3.6235  -3.6134  -3.5360  -3.5216  -3.5104
    -3.3995  -3.3868  -3.3241  -3.3064  -3.2468  -3.2442  -3.1328  -3.0602
    -3.0171  -2.9769  -2.9332  -2.9052  -2.8624  -2.8003  -2.7815  -2.7796
    -2.7602  -2.7356  -2.6995  -2.6887  -2.5197  -2.3977  -1.6183  -0.4766
     0.6561   0.7312   1.9969   2.4553   2.9013   3.3889   3.7790   4.3255
     4.7862   6.2065

          k = 0.2500 0.2652 0.0000 ( 19896 PWs)   bands (ev):

   -44.9506 -44.9473 -44.4182 -44.4181 -44.3691 -44.3671  -3.8066  -3.7968
    -3.6394  -3.6325  -3.6008  -3.5770  -3.5750  -3.5264  -3.5098  -3.3994
    -3.3908  -3.3429  -3.3148  -3.2527  -3.2089  -3.1470  -3.1144  -3.0660
    -3.0474  -2.9589  -2.9534  -2.9505  -2.9071  -2.8708  -2.8536  -2.8013
    -2.7881  -2.7736  -2.7630  -2.7442  -2.3200  -1.8703  -1.0289  -0.5168
    -0.0058   0.0150   1.3300   1.8967   2.3063   3.3003   3.6018   4.4786
     4.6885   6.4757

          k = 0.2500-0.3536 0.0000 ( 19900 PWs)   bands (ev):

   -44.9506 -44.9473 -44.4182 -44.4181 -44.3683 -44.3679  -3.7608  -3.7608
    -3.6400  -3.6400  -3.5756  -3.5750  -3.5408  -3.5404  -3.4346  -3.4335
    -3.3195  -3.3194  -3.2026  -3.2021  -3.1413  -3.1404  -3.1190  -3.1188
    -3.0614  -3.0606  -2.9646  -2.9639  -2.9364  -2.9331  -2.8873  -2.8857
    -2.8049  -2.8035  -2.7453  -2.7438  -1.5763  -1.5753  -1.0328  -1.0314
    -0.2291  -0.2289   1.2894   1.2900   2.6288   2.6310   4.1148   4.1150
     5.4552   5.4579

          k = 0.2500-0.2652 0.0000 ( 19896 PWs)   bands (ev):

   -44.9506 -44.9473 -44.4182 -44.4181 -44.3691 -44.3671  -3.8066  -3.7968
    -3.6394  -3.6325  -3.6008  -3.5770  -3.5750  -3.5264  -3.5098  -3.3994
    -3.3908  -3.3429  -3.3148  -3.2527  -3.2089  -3.1470  -3.1144  -3.0660
    -3.0474  -2.9589  -2.9534  -2.9505  -2.9071  -2.8708  -2.8536  -2.8013
    -2.7881  -2.7736  -2.7630  -2.7442  -2.3200  -1.8703  -1.0289  -0.5168
    -0.0058   0.0150   1.3300   1.8967   2.3063   3.3003   3.6018   4.4786
     4.6885   6.4758

          k = 0.2500-0.1768 0.0000 ( 19923 PWs)   bands (ev):

   -44.9507 -44.9474 -44.4184 -44.4182 -44.3700 -44.3663  -3.9258  -3.8758
    -3.7826  -3.6512  -3.6257  -3.6235  -3.6134  -3.5360  -3.5216  -3.5104
    -3.3995  -3.3868  -3.3241  -3.3064  -3.2468  -3.2442  -3.1328  -3.0602
    -3.0171  -2.9769  -2.9332  -2.9052  -2.8624  -2.8003  -2.7815  -2.7796
    -2.7602  -2.7356  -2.6995  -2.6887  -2.5197  -2.3977  -1.6183  -0.4766
     0.6561   0.7312   1.9969   2.4553   2.9013   3.3889   3.7790   4.3255
     4.7862   6.2065

          k = 0.2500-0.0884 0.0000 ( 19915 PWs)   bands (ev):

   -44.9507 -44.9474 -44.4184 -44.4184 -44.3706 -44.3657  -4.1104  -3.9404
    -3.9127  -3.7127  -3.6962  -3.6885  -3.5915  -3.5830  -3.5259  -3.4915
    -3.4220  -3.4132  -3.3613  -3.3264  -3.3141  -3.2758  -3.1457  -3.0481
    -2.9935  -2.9900  -2.9174  -2.8905  -2.8640  -2.8561  -2.8230  -2.8007
    -2.7802  -2.7473  -2.6113  -2.6036  -2.5004  -2.2675  -1.9749  -0.8648
     0.5295   1.8056   2.7481   3.1026   3.2513   3.9131   4.6311   4.7551
     4.8774   5.7541

          k = 0.3750-0.0000 0.0000 ( 19934 PWs)   bands (ev):

   -44.9489 -44.9456 -44.4166 -44.4164 -44.3688 -44.3636  -4.0638  -3.9884
    -3.9070  -3.8969  -3.8260  -3.7846  -3.7565  -3.7405  -3.6804  -3.6080
    -3.5898  -3.5626  -3.4092  -3.3176  -3.3126  -3.2657  -3.2216  -3.1471
    -3.0978  -3.0736  -3.0218  -2.7948  -2.7698  -2.6735  -2.5452  -2.5440
    -2.4047  -2.3689  -2.3022  -2.1321  -1.8090  -1.4703  -0.8522   0.1758
     1.5863   2.2353   2.6358   3.1822   3.3137   4.2338   4.5033   4.8711
     5.2881   5.5306

          k = 0.3750 0.0884 0.0000 ( 19943 PWs)   bands (ev):

   -44.9489 -44.9456 -44.4165 -44.4164 -44.3686 -44.3638  -3.9861  -3.9338
    -3.9087  -3.8980  -3.8292  -3.7894  -3.7587  -3.6823  -3.6157  -3.6125
    -3.5933  -3.5474  -3.3637  -3.3449  -3.2751  -3.2066  -3.1937  -3.1642
    -3.0858  -3.0345  -3.0132  -2.9012  -2.6835  -2.6814  -2.6280  -2.5738
    -2.3881  -2.3859  -2.2986  -2.1932  -1.7446  -1.4208  -0.7885   0.2630
     1.6589   2.3084   2.6548   3.0254   3.2182   3.7864   4.0211   4.0416
     4.6910   6.1742

          k = 0.3750 0.1768 0.0000 ( 19944 PWs)   bands (ev):

   -44.9489 -44.9456 -44.4165 -44.4164 -44.3681 -44.3644  -3.9212  -3.9151
    -3.8193  -3.7971  -3.7807  -3.7759  -3.7501  -3.5851  -3.5822  -3.5504
    -3.5305  -3.5244  -3.3147  -3.3051  -3.2336  -3.1556  -3.1033  -3.0974
    -3.0670  -2.9926  -2.9834  -2.9274  -2.7573  -2.7271  -2.6937  -2.6340
    -2.4683  -2.3822  -2.3110  -2.2777  -1.5359  -1.2335  -0.5667   0.5158
     1.7164   1.8944   2.5248   2.6587   2.7105   2.9427   2.9987   3.8074
     5.1502   5.8004

          k = 0.3750 0.2652 0.0000 ( 19919 PWs)   bands (ev):

   -44.9488 -44.9455 -44.4164 -44.4163 -44.3672 -44.3653  -3.9305  -3.9248
    -3.7935  -3.7913  -3.7013  -3.6912  -3.6136  -3.5563  -3.5229  -3.4917
    -3.4858  -3.3414  -3.3032  -3.2204  -3.1496  -3.1322  -3.0975  -3.0500
    -3.0192  -2.9828  -2.9320  -2.8893  -2.8534  -2.8345  -2.7641  -2.6797
    -2.4628  -2.4297  -2.3476  -2.3227  -1.1246  -0.8049  -0.1157   0.6115
     0.8687   0.9566   1.8440   2.3155   2.5685   2.7825   2.9352   3.7863
     5.5030   5.5381

          k = 0.3750-0.3536 0.0000 ( 19954 PWs)   bands (ev):

   -44.9489 -44.9456 -44.4164 -44.4163 -44.3665 -44.3661  -3.9317  -3.9317
    -3.7947  -3.7947  -3.6502  -3.6502  -3.5951  -3.5936  -3.4837  -3.4837
    -3.2937  -3.2934  -3.2397  -3.2385  -3.0946  -3.0943  -3.0821  -3.0817
    -3.0417  -3.0413  -2.9344  -2.9332  -2.8920  -2.8881  -2.6704  -2.6697
    -2.4637  -2.4629  -2.3584  -2.3572  -0.4195  -0.4191  -0.0567  -0.0549
     0.5724   0.5734   1.7436   1.7440   2.7176   2.7194   3.4050   3.4055
     5.4105   5.4119

          k = 0.3750-0.2652 0.0000 ( 19919 PWs)   bands (ev):

   -44.9488 -44.9455 -44.4164 -44.4163 -44.3672 -44.3653  -3.9305  -3.9248
    -3.7935  -3.7913  -3.7013  -3.6912  -3.6136  -3.5563  -3.5229  -3.4917
    -3.4858  -3.3414  -3.3032  -3.2204  -3.1496  -3.1322  -3.0975  -3.0500
    -3.0192  -2.9828  -2.9320  -2.8893  -2.8534  -2.8345  -2.7641  -2.6797
    -2.4628  -2.4297  -2.3476  -2.3227  -1.1246  -0.8049  -0.1157   0.6115
     0.8687   0.9566   1.8440   2.3155   2.5685   2.7825   2.9352   3.7863
     5.5029   5.5378

          k = 0.3750-0.1768 0.0000 ( 19944 PWs)   bands (ev):

   -44.9489 -44.9456 -44.4165 -44.4164 -44.3681 -44.3644  -3.9212  -3.9151
    -3.8193  -3.7971  -3.7807  -3.7759  -3.7501  -3.5851  -3.5822  -3.5504
    -3.5305  -3.5244  -3.3147  -3.3051  -3.2336  -3.1556  -3.1033  -3.0974
    -3.0670  -2.9926  -2.9834  -2.9274  -2.7573  -2.7271  -2.6937  -2.6340
    -2.4683  -2.3822  -2.3110  -2.2777  -1.5359  -1.2335  -0.5667   0.5158
     1.7164   1.8944   2.5248   2.6587   2.7105   2.9427   2.9987   3.8074
     5.1502   5.8004

          k = 0.3750-0.0884 0.0000 ( 19943 PWs)   bands (ev):

   -44.9489 -44.9456 -44.4165 -44.4164 -44.3686 -44.3638  -3.9861  -3.9338
    -3.9087  -3.8980  -3.8292  -3.7894  -3.7587  -3.6823  -3.6157  -3.6125
    -3.5933  -3.5474  -3.3637  -3.3449  -3.2751  -3.2066  -3.1937  -3.1642
    -3.0858  -3.0345  -3.0132  -2.9012  -2.6835  -2.6814  -2.6280  -2.5738
    -2.3881  -2.3859  -2.2986  -2.1932  -1.7446  -1.4208  -0.7885   0.2630
     1.6589   2.3084   2.6548   3.0254   3.2182   3.7864   4.0211   4.0416
     4.6910   6.1742

          k =-0.5000 0.0000 0.0000 ( 19974 PWs)   bands (ev):

   -44.9482 -44.9449 -44.4158 -44.4157 -44.3682 -44.3626  -4.0233  -4.0210
    -4.0173  -3.9839  -3.8838  -3.8670  -3.7952  -3.7330  -3.6624  -3.6498
    -3.6306  -3.5624  -3.4252  -3.4007  -3.3994  -3.2510  -3.2473  -3.2018
    -3.1723  -3.1542  -3.1013  -2.7813  -2.7128  -2.6466  -2.5316  -2.4037
    -2.3928  -2.1512  -2.1252  -2.0464  -0.1561   0.0721   0.2237   0.5851
     0.7496   1.5394   1.5490   2.5394   2.9745   3.6706   4.6795   4.9043
     5.8110   6.1451

          k =-0.5000 0.0884 0.0000 ( 19948 PWs)   bands (ev):

   -44.9481 -44.9448 -44.4157 -44.4156 -44.3679 -44.3629  -4.0252  -4.0217
    -3.9435  -3.9226  -3.8926  -3.8629  -3.7951  -3.6836  -3.6749  -3.6279
    -3.5639  -3.5578  -3.4461  -3.3727  -3.3501  -3.2475  -3.1791  -3.1758
    -3.1729  -3.1150  -3.0888  -2.8822  -2.6579  -2.6256  -2.5687  -2.5548
    -2.2695  -2.2603  -2.0763  -2.0589  -0.1208   0.1081   0.3342   0.6312
     0.8049   1.5402   1.6078   2.4577   3.0575   3.4838   4.5174   4.6477
     5.1360   5.6469

          k =-0.5000 0.1768 0.0000 ( 19956 PWs)   bands (ev):

   -44.9482 -44.9449 -44.4157 -44.4156 -44.3673 -44.3636  -4.0325  -4.0289
    -3.8943  -3.8778  -3.7767  -3.7527  -3.7401  -3.6635  -3.6539  -3.5157
    -3.5027  -3.4853  -3.4050  -3.4040  -3.2174  -3.1927  -3.1581  -3.1173
    -3.0665  -3.0613  -3.0540  -2.9151  -2.7143  -2.7033  -2.6755  -2.5786
    -2.3764  -2.1709  -2.1010  -2.0623   0.0121   0.2444   0.6569   0.7871
     0.9763   1.5309   1.7839   2.2460   3.0077   3.0662   3.2752   3.6672
     4.3599   4.9505

          k =-0.5000 0.2652 0.0000 ( 19924 PWs)   bands (ev):

   -44.9481 -44.9448 -44.4156 -44.4155 -44.3664 -44.3645  -4.0407  -4.0343
    -3.8968  -3.8874  -3.6919  -3.6569  -3.6467  -3.6292  -3.5125  -3.4467
    -3.4463  -3.4203  -3.3237  -3.2885  -3.1985  -3.1078  -3.0970  -3.0963
    -3.0532  -3.0353  -3.0044  -2.8686  -2.8357  -2.8175  -2.7251  -2.5748
    -2.2755  -2.2450  -2.1086  -2.0722   0.3229   0.5682   1.0971   1.1670
     1.2700   1.5607   1.8368   1.9934   1.9938   2.1958   2.4306   2.7533
     4.0020   4.3633

          k =-0.5000-0.3536 0.0000 ( 19904 PWs)   bands (ev):

   -44.9480 -44.9447 -44.4155 -44.4154 -44.3657 -44.3652  -4.0406  -4.0405
    -3.8940  -3.8939  -3.6706  -3.6694  -3.6035  -3.6035  -3.4246  -3.4244
    -3.3764  -3.3762  -3.2501  -3.2488  -3.1397  -3.1377  -3.0778  -3.0773
    -3.0443  -3.0410  -3.0057  -3.0045  -2.8737  -2.8698  -2.5594  -2.5584
    -2.2810  -2.2800  -2.0939  -2.0933   0.9253   0.9258   1.1777   1.1794
     1.5596   1.5602   1.6287   1.6292   1.7798   1.7809   2.0714   2.0747
     4.0001   4.0004

     the Fermi energy is     1.4525 ev

!    total energy              =    -595.09121867 Ry
     estimated scf accuracy    <       0.00000063 Ry
     smearing contrib. (-TS)   =       0.00167381 Ry
     internal energy E=F+TS    =    -595.09289248 Ry

     The total energy is F=E-TS. E is the sum of the following terms:
     one-electron contribution =   -6008.75706201 Ry
     hartree contribution      =    3044.21277602 Ry
     xc contribution           =    -155.76520566 Ry
     ewald contribution        =    2525.43387793 Ry
     DFT-D3 Dispersion         =      -0.21727875 Ry

     convergence has been achieved in   5 iterations

     negative rho (up, down):  2.386E-05 0.000E+00

     Forces acting on atoms (cartesian axes, Ry/au):

     atom    1 type  1   force =     0.00000047   -0.00000029   -0.00965389
     atom    2 type  1   force =    -0.00000034    0.00000204   -0.00332962
     atom    3 type  1   force =     0.00000064   -0.00000085   -0.00017960
     atom    4 type  1   force =     0.00000043   -0.00000023    0.00000498
     atom    5 type  1   force =    -0.00000011    0.00000005    0.00382159
     atom    6 type  1   force =    -0.00000000    0.00000033    0.01023444
     atom    7 type  2   force =    -0.00000005   -0.00000012    0.00651901
     atom    8 type  2   force =    -0.00000029    0.00000007    0.00365427
     atom    9 type  2   force =    -0.00000015   -0.00000024    0.00019461
     atom   10 type  2   force =    -0.00000021   -0.00000034   -0.00035856
     atom   11 type  2   force =     0.00000001   -0.00000012   -0.00416473
     atom   12 type  2   force =    -0.00000040   -0.00000029   -0.00674251
     The non-local contrib.  to forces
     atom    1 type  1   force =     0.00000041    0.00000033    0.05718155
     atom    2 type  1   force =     0.00000029    0.00000255   -0.00182815
     atom    3 type  1   force =     0.00000095   -0.00000095   -0.00315805
     atom    4 type  1   force =     0.00000019   -0.00000001    0.00279529
     atom    5 type  1   force =    -0.00000008   -0.00000016    0.00163879
     atom    6 type  1   force =     0.00000015    0.00000048   -0.05770386
     atom    7 type  2   force =    -0.00000452    0.00000001    0.03884573
     atom    8 type  2   force =    -0.00000390    0.00000003    0.00639565
     atom    9 type  2   force =    -0.00000408   -0.00000008    0.00033773
     atom   10 type  2   force =    -0.00000401   -0.00000016   -0.00050283
     atom   11 type  2   force =    -0.00000384    0.00000003   -0.00667854
     atom   12 type  2   force =    -0.00000452   -0.00000009   -0.03872323
     The ionic contribution  to forces
     atom    1 type  1   force =     0.00000026   -0.00000856  110.81350772
     atom    2 type  1   force =    -0.00000016    0.00001366   67.66357368
     atom    3 type  1   force =    -0.00000022   -0.00000459   22.51415750
     atom    4 type  1   force =    -0.00000001    0.00000020  -22.53262679
     atom    5 type  1   force =    -0.00000000   -0.00000001  -67.67293390
     atom    6 type  1   force =    -0.00000000    0.00000000 -110.81263716
     atom    7 type  2   force =    -0.00000034    0.00000348   30.95723315
     atom    8 type  2   force =     0.00000021   -0.00000530   18.41448890
     atom    9 type  2   force =     0.00000024    0.00000116    6.13957382
     atom   10 type  2   force =     0.00000000   -0.00000005   -6.14695698
     atom   11 type  2   force =     0.00000000    0.00000000  -18.40897024
     atom   12 type  2   force =     0.00000000   -0.00000000  -30.92840971
     The local contribution  to forces
     atom    1 type  1   force =    -0.00000008    0.00000833 -110.87427129
     atom    2 type  1   force =    -0.00000031   -0.00001438  -67.66400132
     atom    3 type  1   force =     0.00000057    0.00000464  -22.51070148
     atom    4 type  1   force =    -0.00000015   -0.00000034   22.53088711
     atom    5 type  1   force =     0.00000011    0.00000011   67.67289299
     atom    6 type  1   force =     0.00000020   -0.00000053  110.87294617
     atom    7 type  2   force =     0.00000497   -0.00000348  -30.98795624
     atom    8 type  2   force =     0.00000362    0.00000541  -18.41598975
     atom    9 type  2   force =     0.00000392   -0.00000121   -6.13940958
     atom   10 type  2   force =     0.00000396    0.00000009    6.14722754
     atom   11 type  2   force =     0.00000414   -0.00000001   18.41007350
     atom   12 type  2   force =     0.00000437    0.00000013   30.95836009
     The core correction contribution to forces
     atom    1 type  1   force =    -0.00000002    0.00000001   -0.00457463
     atom    2 type  1   force =     0.00000000   -0.00000006    0.00010330
     atom    3 type  1   force =     0.00000000    0.00000000    0.00000851
     atom    4 type  1   force =    -0.00000002    0.00000000   -0.00001722
     atom    5 type  1   force =    -0.00000000   -0.00000001   -0.00016862
     atom    6 type  1   force =    -0.00000000   -0.00000002    0.00452975
     atom    7 type  2   force =     0.00000000    0.00000000    0.00000000
     atom    8 type  2   force =     0.00000000    0.00000000    0.00000000
     atom    9 type  2   force =     0.00000000    0.00000000    0.00000000
     atom   10 type  2   force =     0.00000000    0.00000000    0.00000000
     atom   11 type  2   force =     0.00000000    0.00000000    0.00000000
     atom   12 type  2   force =     0.00000000    0.00000000    0.00000000
     The Hubbard contrib.    to forces
     atom    1 type  1   force =     0.00000000    0.00000000    0.00000000
     atom    2 type  1   force =     0.00000000    0.00000000    0.00000000
     atom    3 type  1   force =     0.00000000    0.00000000    0.00000000
     atom    4 type  1   force =     0.00000000    0.00000000    0.00000000
     atom    5 type  1   force =     0.00000000    0.00000000    0.00000000
     atom    6 type  1   force =     0.00000000    0.00000000    0.00000000
     atom    7 type  2   force =     0.00000000    0.00000000    0.00000000
     atom    8 type  2   force =     0.00000000    0.00000000    0.00000000
     atom    9 type  2   force =     0.00000000    0.00000000    0.00000000
     atom   10 type  2   force =     0.00000000    0.00000000    0.00000000
     atom   11 type  2   force =     0.00000000    0.00000000    0.00000000
     atom   12 type  2   force =     0.00000000    0.00000000    0.00000000
     The SCF correction term to forces
     atom    1 type  1   force =     0.00000013   -0.00000027    0.00224780
     atom    2 type  1   force =     0.00000008    0.00000042    0.00242907
     atom    3 type  1   force =    -0.00000000    0.00000000   -0.00000000
     atom    4 type  1   force =     0.00000000    0.00000000   -0.00000000
     atom    5 type  1   force =     0.00000000    0.00000000   -0.00000000
     atom    6 type  1   force =    -0.00000000    0.00000000   -0.00000000
     atom    7 type  2   force =     0.00000007   -0.00000000    0.00056248
     atom    8 type  2   force =     0.00000001    0.00000007    0.00046985
     atom    9 type  2   force =     0.00000000    0.00000000   -0.00000000
     atom   10 type  2   force =     0.00000000   -0.00000000   -0.00000000
     atom   11 type  2   force =    -0.00000000    0.00000000   -0.00000000
     atom   12 type  2   force =    -0.00000000   -0.00000000   -0.00000000

     DFT-D3 dispersion contribution to forces:
     atom    1 type  1   force =    -0.00000000    0.00000001   -0.00375856
     atom    2 type  1   force =     0.00000000   -0.00000001   -0.00361972
     atom    3 type  1   force =    -0.00000000    0.00000000   -0.00046091
     atom    4 type  1   force =    -0.00000000   -0.00000000    0.00047820
     atom    5 type  1   force =     0.00000000    0.00000000    0.00361383
     atom    6 type  1   force =     0.00000000   -0.00000000    0.00372807
     atom    7 type  2   force =     0.00000000    0.00000000   -0.00217963
     atom    8 type  2   force =    -0.00000000    0.00000000   -0.00172391
     atom    9 type  2   force =    -0.00000000    0.00000000   -0.00025780
     atom   10 type  2   force =     0.00000000   -0.00000000    0.00026019
     atom   11 type  2   force =    -0.00000000   -0.00000000    0.00173268
     atom   12 type  2   force =    -0.00000000    0.00000000    0.00218759

     Total force =     0.012654     Total SCF correction =     0.003390
     SCF correction compared to forces is large: reduce conv_thr to get better values


     Computing stress (Cartesian axis) and pressure


     negative rho (up, down):  2.386E-05 0.000E+00
          total   stress  (Ry/bohr**3)                   (kbar)     P=      -11.52
  -0.00008748   0.00000000   0.00000000          -12.87        0.00        0.00
   0.00000000  -0.00006844  -0.00000000            0.00      -10.07       -0.00
   0.00000000  -0.00000000  -0.00007901            0.00       -0.00      -11.62

     Energy error            =      1.8E-04 Ry
     Gradient error          =      9.7E-03 Ry/Bohr

     number of scf cycles    =   2
     number of bfgs steps    =   1

     energy             old  =    -595.0910366696 Ry
     energy             new  =    -595.0912186701 Ry

     CASE: energy            _new < energy            _old


     WARNING: bfgs curvature condition failed, Theta= 0.867
     new trust radius        =       0.0115334111 bohr
     new conv_thr            =       0.0000000182 Ry


ATOMIC_POSITIONS (angstrom)
Ag            0.7806849831        1.1040561650       21.0289027175
Ag            0.7806854305        3.3121656267       18.8281880158
Ag            0.7806850825        1.1040554316       16.6243325897    0   0   0
Ag            0.7806850825        3.3121662948       14.4162217265    0   0   0
Ag            0.7806850825        1.1040554316       12.2081108632    0   0   0
Ag            0.7806850825        3.3121662948       10.0000000000    0   0   0
Li            2.3420554167        3.3121664383       21.0481820006
Li            2.3420551774        1.1040551410       18.8369597879
Li            2.3420552475        3.3121662948       16.6243325897    0   0   0
Li            2.3420552475        1.1040554316       14.4162217265    0   0   0
Li            2.3420552475        3.3121662948       12.2081108632    0   0   0
Li            2.3420552475        1.1040554316       10.0000000000    0   0   0



     Writing config-only to output data dir ./LiAg_110/LiAg_110.save/
     NEW-OLD atomic charge density approx. for the potential

     negative rho (up, down):  2.393E-05 0.000E+00

     total cpu time spent up to now is       24.8 secs

     per-process dynamical memory:   215.0 Mb

     Self-consistent Calculation

     iteration #  1     ecut=    55.00 Ry     beta= 0.30
     Davidson diagonalization with overlap
     ethr =  1.00E-06,  avg # of iterations =  3.4

     negative rho (up, down):  2.389E-05 0.000E+00

     total cpu time spent up to now is       25.7 secs

     total energy              =    -595.09135480 Ry
     estimated scf accuracy    <       0.00011272 Ry

     iteration #  2     ecut=    55.00 Ry     beta= 0.30
     Davidson diagonalization with overlap
     ethr =  1.34E-07,  avg # of iterations =  2.5

     negative rho (up, down):  2.407E-05 0.000E+00

     total cpu time spent up to now is       26.3 secs

     total energy              =    -595.09127079 Ry
     estimated scf accuracy    <       0.00308662 Ry

     iteration #  3     ecut=    55.00 Ry     beta= 0.30
     Davidson diagonalization with overlap
     ethr =  1.34E-07,  avg # of iterations =  2.3

     negative rho (up, down):  2.429E-05 0.000E+00

     total cpu time spent up to now is       26.8 secs

     total energy              =    -595.09138174 Ry
     estimated scf accuracy    <       0.00098660 Ry

     iteration #  4     ecut=    55.00 Ry     beta= 0.30
     Davidson diagonalization with overlap
     ethr =  1.34E-07,  avg # of iterations =  1.1

     negative rho (up, down):  2.432E-05 0.000E+00

     total cpu time spent up to now is       27.2 secs

     total energy              =    -595.09140829 Ry
     estimated scf accuracy    <       0.00000360 Ry

     iteration #  5     ecut=    55.00 Ry     beta= 0.30
     Davidson diagonalization with overlap
     ethr =  4.28E-09,  avg # of iterations =  3.7

     negative rho (up, down):  2.407E-05 0.000E+00

     total cpu time spent up to now is       27.8 secs

     total energy              =    -595.09140875 Ry
     estimated scf accuracy    <       0.00000040 Ry

     iteration #  6     ecut=    55.00 Ry     beta= 0.30
     Davidson diagonalization with overlap
     ethr =  4.76E-10,  avg # of iterations =  4.2

     negative rho (up, down):  2.389E-05 0.000E+00

     total cpu time spent up to now is       28.5 secs

     total energy              =    -595.09140887 Ry
     estimated scf accuracy    <       0.00000009 Ry

     iteration #  7     ecut=    55.00 Ry     beta= 0.30
     Davidson diagonalization with overlap
     ethr =  1.06E-10,  avg # of iterations =  2.9

     negative rho (up, down):  2.386E-05 0.000E+00

     total cpu time spent up to now is       29.1 secs

     End of self-consistent calculation

          k = 0.0000 0.0000 0.0000 ( 19753 PWs)   bands (ev):

   -44.9561 -44.9474 -44.4182 -44.4155 -44.3693 -44.3640  -4.6967  -4.2946
    -4.0189  -4.0086  -3.9866  -3.9572  -3.8563  -3.7783  -3.7696  -3.7661
    -3.6594  -3.6294  -3.4698  -3.4099  -3.3908  -2.9677  -2.9663  -2.9577
    -2.9053  -2.8787  -2.7935  -2.7655  -2.7543  -2.7121  -2.6526  -2.6511
    -2.5836  -2.5665  -2.5434  -2.5202  -2.4998  -2.4832  -2.1824  -1.8825
    -0.5413   0.9099   1.6240   1.7439   2.4926   3.5837   4.4773   4.8742
     4.8950   5.3629

          k = 0.0000 0.0884 0.0000 ( 19735 PWs)   bands (ev):

   -44.9560 -44.9473 -44.4181 -44.4154 -44.3691 -44.3640  -4.6073  -4.2813
    -3.9969  -3.9817  -3.9665  -3.9533  -3.8055  -3.7835  -3.7745  -3.7269
    -3.6643  -3.6500  -3.4511  -3.3655  -3.3320  -3.0367  -2.9846  -2.9834
    -2.9120  -2.8929  -2.7957  -2.7622  -2.7336  -2.6749  -2.6659  -2.6633
    -2.6305  -2.5902  -2.5672  -2.5416  -2.4874  -2.4790  -2.3123  -1.6392
    -0.3579   0.7429   1.4361   1.7537   1.9664   2.9052   4.1242   4.8881
     5.0442   5.4670

          k = 0.0000 0.1768 0.0000 ( 19834 PWs)   bands (ev):

   -44.9561 -44.9474 -44.4181 -44.4154 -44.3687 -44.3646  -4.3831  -4.2315
    -4.0268  -3.9299  -3.9225  -3.8382  -3.7993  -3.7706  -3.7307  -3.6897
    -3.6815  -3.5867  -3.3446  -3.3280  -3.2373  -3.0314  -3.0271  -3.0259
    -2.9312  -2.9285  -2.8270  -2.7986  -2.7903  -2.7810  -2.7615  -2.6936
    -2.6528  -2.6383  -2.5452  -2.5355  -2.4728  -2.4650  -2.1751  -1.1410
    -0.2520  -0.0761   0.9543   1.5293   1.9261   2.3653   2.9089   4.2312
     5.4054   5.4313

          k = 0.0000 0.2652 0.0000 ( 19874 PWs)   bands (ev):

   -44.9561 -44.9474 -44.4181 -44.4153 -44.3679 -44.3655  -4.1687  -4.1560
    -4.0471  -3.9124  -3.8727  -3.8628  -3.7846  -3.7456  -3.6810  -3.6700
    -3.5835  -3.3890  -3.3041  -3.2972  -3.1705  -3.0691  -3.0646  -3.0088
    -2.9779  -2.9577  -2.9519  -2.9303  -2.8180  -2.8168  -2.7789  -2.6708
    -2.6005  -2.5547  -2.5111  -2.4643  -2.4569  -2.4507  -1.6010  -1.3795
    -0.6734  -0.5016   0.5419   1.0808   1.7028   2.4324   3.1330   3.2481
     4.5286   5.4637

          k = 0.0000-0.3536 0.0000 ( 19864 PWs)   bands (ev):

   -44.9560 -44.9474 -44.4180 -44.4153 -44.3672 -44.3662  -4.1024  -4.1023
    -4.0007  -4.0000  -3.8531  -3.8521  -3.7808  -3.7754  -3.6650  -3.6643
    -3.3948  -3.3945  -3.2338  -3.2287  -3.1922  -3.1920  -3.0815  -3.0815
    -3.0017  -2.9941  -2.9651  -2.9645  -2.8089  -2.8079  -2.6337  -2.6326
    -2.5257  -2.5248  -2.4544  -2.4487  -2.3509  -2.3489  -1.6633  -1.6623
    -0.7287  -0.7258   0.5938   0.5947   1.9915   1.9968   3.4390   3.4390
     4.3198   4.3232

          k = 0.1250-0.0000 0.0000 ( 19806 PWs)   bands (ev):

   -44.9554 -44.9467 -44.4174 -44.4147 -44.3686 -44.3632  -4.4897  -4.0364
    -4.0045  -3.9598  -3.8912  -3.7824  -3.7732  -3.7413  -3.7318  -3.5805
    -3.4666  -3.4528  -3.4179  -3.3991  -3.3886  -3.1658  -3.1567  -3.1205
    -3.0737  -2.9251  -2.9003  -2.8838  -2.7653  -2.7390  -2.6922  -2.6828
    -2.6426  -2.6257  -2.6032  -2.5857  -2.5500  -2.4792  -2.1686  -1.6539
    -0.2819   1.2003   2.0199   2.1865   2.9045   3.9637   4.6564   5.1117
     5.2480   5.5889

[...]
    -3.5288  -3.5093  -3.3628  -3.2734  -3.2502  -3.2127  -3.1893  -3.0515
    -3.0433  -2.9724  -2.9548  -2.7358  -2.7066  -2.5730  -2.4775  -2.4347
    -2.3045  -2.2814  -2.2175  -2.0368  -1.7434  -1.4114  -0.7893   0.2626
     1.6956   2.3035   2.6995   3.2454   3.4155   4.2984   4.5951   4.9322
     5.3841   5.5982

          k = 0.3750 0.0884 0.0000 ( 19943 PWs)   bands (ev):

   -45.0295 -44.8688 -44.3394 -44.3001 -44.2855 -44.2738  -3.9508  -3.8777
    -3.8485  -3.8349  -3.7817  -3.7319  -3.6921  -3.6533  -3.5910  -3.5674
    -3.5473  -3.4906  -3.3173  -3.2890  -3.2235  -3.1681  -3.1488  -3.0780
    -2.9924  -2.9652  -2.9352  -2.8345  -2.6277  -2.5981  -2.5383  -2.4700
    -2.2994  -2.2955  -2.2120  -2.1015  -1.6774  -1.3616  -0.7268   0.3501
     1.7743   2.3778   2.7200   3.1232   3.2982   3.8990   4.0037   4.1335
     4.7534   6.2439

          k = 0.3750 0.1768 0.0000 ( 19944 PWs)   bands (ev):

   -45.0294 -44.8688 -44.3394 -44.2999 -44.2853 -44.2741  -3.8591  -3.8539
    -3.7850  -3.7457  -3.7287  -3.7111  -3.6927  -3.5531  -3.5381  -3.5187
    -3.5001  -3.4585  -3.2658  -3.2399  -3.1792  -3.1208  -3.0587  -3.0195
    -2.9792  -2.9167  -2.8996  -2.8538  -2.7021  -2.6342  -2.6196  -2.5469
    -2.3792  -2.2933  -2.2319  -2.1887  -1.4659  -1.1731  -0.5069   0.6053
     1.8468   1.9853   2.5921   2.7219   2.7646   3.0363   3.0592   3.8619
     5.2044   5.8914

          k = 0.3750 0.2652 0.0000 ( 19919 PWs)   bands (ev):

   -45.0294 -44.8687 -44.3393 -44.2997 -44.2851 -44.2744  -3.8697  -3.8632
    -3.7459  -3.7325  -3.6551  -3.6402  -3.5724  -3.5131  -3.4889  -3.4389
    -3.4202  -3.2863  -3.2539  -3.1775  -3.1026  -3.0875  -3.0142  -2.9906
    -2.9461  -2.8780  -2.8579  -2.8233  -2.8141  -2.7623  -2.6691  -2.6113
    -2.3722  -2.3550  -2.2607  -2.2412  -1.0536  -0.7427  -0.0537   0.6870
     0.9545   1.0572   1.9059   2.4077   2.6318   2.8716   3.0201   3.8657
     5.5608   5.6205

          k = 0.3750-0.3536 0.0000 ( 19954 PWs)   bands (ev):

   -45.0295 -44.8688 -44.3393 -44.2998 -44.2851 -44.2746  -3.8716  -3.8703
    -3.7433  -3.7420  -3.6037  -3.5963  -3.5655  -3.5392  -3.4346  -3.4252
    -3.2423  -3.2224  -3.2157  -3.1638  -3.1009  -3.0464  -3.0156  -2.9798
    -2.9679  -2.9412  -2.8685  -2.8607  -2.8370  -2.8102  -2.6259  -2.5797
    -2.3898  -2.3559  -2.2871  -2.2737  -0.3690  -0.3307  -0.0085   0.0376
     0.6442   0.6513   1.8208   1.8269   2.7820   2.8400   3.4593   3.5239
     5.4776   5.4894

          k = 0.3750-0.2652 0.0000 ( 19919 PWs)   bands (ev):

   -45.0294 -44.8687 -44.3393 -44.2997 -44.2851 -44.2744  -3.8697  -3.8632
    -3.7459  -3.7325  -3.6551  -3.6402  -3.5724  -3.5131  -3.4889  -3.4389
    -3.4202  -3.2863  -3.2539  -3.1775  -3.1026  -3.0875  -3.0142  -2.9906
    -2.9461  -2.8780  -2.8579  -2.8233  -2.8141  -2.7623  -2.6691  -2.6113
    -2.3722  -2.3550  -2.2607  -2.2412  -1.0536  -0.7427  -0.0537   0.6870
     0.9545   1.0572   1.9059   2.4077   2.6318   2.8716   3.0201   3.8657
     5.5608   5.6205

          k = 0.3750-0.1768 0.0000 ( 19944 PWs)   bands (ev):

   -45.0294 -44.8688 -44.3394 -44.2999 -44.2853 -44.2741  -3.8591  -3.8539
    -3.7850  -3.7457  -3.7287  -3.7111  -3.6927  -3.5531  -3.5381  -3.5187
    -3.5001  -3.4585  -3.2658  -3.2399  -3.1792  -3.1208  -3.0587  -3.0195
    -2.9792  -2.9167  -2.8996  -2.8538  -2.7021  -2.6342  -2.6196  -2.5469
    -2.3792  -2.2933  -2.2319  -2.1887  -1.4659  -1.1731  -0.5069   0.6053
     1.8468   1.9853   2.5921   2.7219   2.7646   3.0363   3.0592   3.8619
     5.2044   5.8914

          k = 0.3750-0.0884 0.0000 ( 19943 PWs)   bands (ev):

   -45.0295 -44.8688 -44.3394 -44.3001 -44.2855 -44.2738  -3.9508  -3.8777
    -3.8485  -3.8349  -3.7817  -3.7319  -3.6921  -3.6533  -3.5910  -3.5674
    -3.5473  -3.4906  -3.3173  -3.2890  -3.2235  -3.1681  -3.1488  -3.0780
    -2.9924  -2.9652  -2.9352  -2.8345  -2.6277  -2.5981  -2.5383  -2.4700
    -2.2994  -2.2955  -2.2120  -2.1015  -1.6774  -1.3616  -0.7268   0.3501
     1.7743   2.3778   2.7200   3.1232   3.2982   3.8990   4.0037   4.1335
     4.7534   6.2439

          k =-0.5000 0.0000 0.0000 ( 19974 PWs)   bands (ev):

   -45.0288 -44.8681 -44.3387 -44.2994 -44.2849 -44.2728  -3.9894  -3.9617
    -3.9542  -3.9280  -3.8179  -3.8074  -3.7490  -3.7002  -3.6001  -3.6000
    -3.5992  -3.5372  -3.3534  -3.3516  -3.3508  -3.1941  -3.1798  -3.1477
    -3.1182  -3.0511  -3.0340  -2.7236  -2.6534  -2.5411  -2.4269  -2.3329
    -2.2922  -2.0613  -2.0295  -1.9617  -0.0884   0.1482   0.2863   0.6769
     0.7874   1.5820   1.6038   2.6535   2.9981   3.8752   4.7222   5.0554
     5.9134   6.1944

          k =-0.5000 0.0884 0.0000 ( 19948 PWs)   bands (ev):

   -45.0287 -44.8680 -44.3386 -44.2993 -44.2847 -44.2729  -3.9681  -3.9540
    -3.9162  -3.8610  -3.8358  -3.7965  -3.7480  -3.6426  -3.6351  -3.5718
    -3.5454  -3.5183  -3.3856  -3.3107  -3.3009  -3.1602  -3.1525  -3.1252
    -3.0779  -3.0431  -3.0095  -2.8190  -2.5725  -2.5612  -2.4886  -2.4448
    -2.1827  -2.1673  -1.9891  -1.9720  -0.0532   0.1827   0.4003   0.7210
     0.8483   1.5745   1.6715   2.5667   3.0789   3.6792   4.6670   4.6813
     5.2121   5.7262

          k =-0.5000 0.1768 0.0000 ( 19956 PWs)   bands (ev):

   -45.0287 -44.8680 -44.3386 -44.2992 -44.2846 -44.2733  -3.9729  -3.9651
    -3.8444  -3.8138  -3.7508  -3.6910  -3.6846  -3.6218  -3.6048  -3.5011
    -3.4670  -3.4324  -3.3540  -3.3308  -3.1608  -3.1073  -3.0884  -3.0633
    -3.0250  -2.9860  -2.9696  -2.8427  -2.6545  -2.6173  -2.5911  -2.4904
    -2.2940  -2.0831  -2.0224  -1.9716   0.0788   0.3144   0.7315   0.8716
     1.0376   1.5706   1.8481   2.3407   3.0759   3.1769   3.3323   3.8045
     4.4458   5.0529

          k =-0.5000 0.2652 0.0000 ( 19924 PWs)   bands (ev):

   -45.0287 -44.8680 -44.3385 -44.2989 -44.2843 -44.2737  -3.9805  -3.9727
    -3.8484  -3.8307  -3.6531  -3.6134  -3.5949  -3.5878  -3.4639  -3.4038
    -3.3823  -3.3656  -3.2736  -3.2432  -3.0938  -3.0822  -3.0390  -3.0211
    -2.9892  -2.9449  -2.9280  -2.8039  -2.7974  -2.7433  -2.6278  -2.5137
    -2.1854  -2.1686  -2.0231  -1.9882   0.3870   0.6291   1.1740   1.2472
     1.3623   1.6204   1.9177   2.0312   2.0674   2.2419   2.5607   2.8755
     4.0917   4.4425

          k =-0.5000-0.3536 0.0000 ( 19904 PWs)   bands (ev):

   -45.0286 -44.8679 -44.3384 -44.2988 -44.2842 -44.2737  -3.9804  -3.9797
    -3.8444  -3.8415  -3.6411  -3.6198  -3.5546  -3.5520  -3.3743  -3.3681
    -3.3361  -3.3003  -3.2179  -3.1579  -3.0972  -3.0673  -3.0303  -3.0199
    -2.9680  -2.9605  -2.9300  -2.9074  -2.8502  -2.7918  -2.5200  -2.4673
    -2.2069  -2.1798  -2.0127  -2.0111   0.9611   1.0041   1.2106   1.2556
     1.6167   1.6788   1.7031   1.7040   1.8422   1.9276   2.1541   2.1593
     4.0801   4.0923

     the Fermi energy is     1.5282 ev

!    total energy              =    -595.09385551 Ry
     estimated scf accuracy    <          4.9E-09 Ry
     smearing contrib. (-TS)   =       0.00194367 Ry
     internal energy E=F+TS    =    -595.09579918 Ry

     The total energy is F=E-TS. E is the sum of the following terms:
     one-electron contribution =   -6077.04045071 Ry
     hartree contribution      =    3078.53729390 Ry
     xc contribution           =    -155.77440186 Ry
     ewald contribution        =    2559.40032234 Ry
     DFT-D3 Dispersion         =      -0.21856285 Ry

     convergence has been achieved in   7 iterations

     negative rho (up, down):  2.307E-05 0.000E+00

     Forces acting on atoms (cartesian axes, Ry/au):

     atom    1 type  1   force =     0.00000005    0.00000005   -0.00045792
     atom    2 type  1   force =    -0.00000001   -0.00000030    0.00058985
     atom    3 type  1   force =    -0.00000002   -0.00000007   -0.00388067
     atom    4 type  1   force =     0.00000003   -0.00000000    0.00041668
     atom    5 type  1   force =     0.00000006    0.00000001    0.00408587
     atom    6 type  1   force =    -0.00000001    0.00000002    0.01035732
     atom    7 type  2   force =    -0.00000005   -0.00000001   -0.00023705
     atom    8 type  2   force =    -0.00000010    0.00000021    0.00061686
     atom    9 type  2   force =    -0.00000007    0.00000003   -0.00016997
     atom   10 type  2   force =     0.00000004    0.00000002   -0.00062120
     atom   11 type  2   force =     0.00000002    0.00000002   -0.00396514
     atom   12 type  2   force =     0.00000005    0.00000003   -0.00673464
     The non-local contrib.  to forces
     atom    1 type  1   force =     0.00000008    0.00000006    0.03314706
     atom    2 type  1   force =    -0.00000042   -0.00000022   -0.00728185
     atom    3 type  1   force =     0.00000016   -0.00000007   -0.00158259
     atom    4 type  1   force =     0.00000002   -0.00000001    0.00539392
     atom    5 type  1   force =     0.00000007   -0.00000001    0.00241331
     atom    6 type  1   force =    -0.00000005   -0.00000001   -0.05721382
     atom    7 type  2   force =    -0.00000690   -0.00000008    0.04254395
     atom    8 type  2   force =    -0.00000506    0.00000013    0.00467039
     atom    9 type  2   force =    -0.00000443   -0.00000001   -0.00013640
     atom   10 type  2   force =    -0.00000384   -0.00000001   -0.00073393
     atom   11 type  2   force =    -0.00000401   -0.00000000   -0.00659546
     atom   12 type  2   force =    -0.00000464   -0.00000000   -0.03875423
     The ionic contribution  to forces
     atom    1 type  1   force =     0.00000183   -0.00000321  110.89393987
     atom    2 type  1   force =     0.00000155    0.00000236   68.47778602
     atom    3 type  1   force =     0.00000085    0.00000111   22.09781306
     atom    4 type  1   force =     0.00000005   -0.00000005  -22.86824673
     atom    5 type  1   force =     0.00000000    0.00000000  -68.01440537
     atom    6 type  1   force =     0.00000000   -0.00000000 -111.15386871
     atom    7 type  2   force =    -0.00000137   -0.00000223   32.12877144
     atom    8 type  2   force =    -0.00000121    0.00000236   18.12592060
     atom    9 type  2   force =    -0.00000170   -0.00000035    6.07736867
     atom   10 type  2   force =    -0.00000001    0.00000002   -6.24162719
     atom   11 type  2   force =    -0.00000000   -0.00000000  -18.50197324
     atom   12 type  2   force =    -0.00000000    0.00000000  -31.02147841
     The local contribution  to forces
     atom    1 type  1   force =    -0.00000181    0.00000319 -110.91727904
     atom    2 type  1   force =    -0.00000111   -0.00000248  -68.46622391
     atom    3 type  1   force =    -0.00000107   -0.00000111  -22.10078176
     atom    4 type  1   force =    -0.00000001    0.00000003   22.86263839
     atom    5 type  1   force =     0.00000003   -0.00000000   68.01273665
     atom    6 type  1   force =     0.00000003    0.00000003  111.21328582
     atom    7 type  2   force =     0.00000823    0.00000224  -32.16972513
     atom    8 type  2   force =     0.00000618   -0.00000231  -18.12805250
     atom    9 type  2   force =     0.00000609    0.00000035   -6.07725034
     atom   10 type  2   force =     0.00000391   -0.00000001    6.24141501
     atom   11 type  2   force =     0.00000405   -0.00000000   18.50288571
     atom   12 type  2   force =     0.00000473   -0.00000001   31.05133033
     The core correction contribution to forces
     atom    1 type  1   force =    -0.00000000   -0.00000001   -0.00518004
     atom    2 type  1   force =    -0.00000003    0.00000002   -0.00055498
     atom    3 type  1   force =     0.00000000   -0.00000000    0.00069178
     atom    4 type  1   force =     0.00000000    0.00000000   -0.00001270
     atom    5 type  1   force =    -0.00000000    0.00000000   -0.00017103
     atom    6 type  1   force =    -0.00000000   -0.00000000    0.00453042
     atom    7 type  2   force =     0.00000000    0.00000000    0.00000000
     atom    8 type  2   force =     0.00000000    0.00000000    0.00000000
     atom    9 type  2   force =     0.00000000    0.00000000    0.00000000
     atom   10 type  2   force =     0.00000000    0.00000000    0.00000000
     atom   11 type  2   force =     0.00000000    0.00000000    0.00000000
     atom   12 type  2   force =     0.00000000    0.00000000    0.00000000
     The Hubbard contrib.    to forces
     atom    1 type  1   force =     0.00000000    0.00000000    0.00000000
     atom    2 type  1   force =     0.00000000    0.00000000    0.00000000
     atom    3 type  1   force =     0.00000000    0.00000000    0.00000000
     atom    4 type  1   force =     0.00000000    0.00000000    0.00000000
     atom    5 type  1   force =     0.00000000    0.00000000    0.00000000
     atom    6 type  1   force =     0.00000000    0.00000000    0.00000000
     atom    7 type  2   force =     0.00000000    0.00000000    0.00000000
     atom    8 type  2   force =     0.00000000    0.00000000    0.00000000
     atom    9 type  2   force =     0.00000000    0.00000000    0.00000000
     atom   10 type  2   force =     0.00000000    0.00000000    0.00000000
     atom   11 type  2   force =     0.00000000    0.00000000    0.00000000
     atom   12 type  2   force =     0.00000000    0.00000000    0.00000000
     The SCF correction term to forces
     atom    1 type  1   force =    -0.00000003   -0.00000003   -0.00016368
     atom    2 type  1   force =     0.00000003   -0.00000000   -0.00000665
     atom    3 type  1   force =     0.00000000   -0.00000000    0.00000000
     atom    4 type  1   force =    -0.00000000    0.00000000    0.00000000
     atom    5 type  1   force =    -0.00000000   -0.00000000   -0.00000000
     atom    6 type  1   force =     0.00000000   -0.00000000   -0.00000000
     atom    7 type  2   force =     0.00000002    0.00000003   -0.00002961
     atom    8 type  2   force =     0.00000001    0.00000002   -0.00000632
     atom    9 type  2   force =    -0.00000000    0.00000000    0.00000000
     atom   10 type  2   force =     0.00000000   -0.00000000    0.00000000
     atom   11 type  2   force =     0.00000000    0.00000000   -0.00000000
     atom   12 type  2   force =    -0.00000000    0.00000000   -0.00000000

     DFT-D3 dispersion contribution to forces:
     atom    1 type  1   force =     0.00000000    0.00000001   -0.00492557
     atom    2 type  1   force =    -0.00000001   -0.00000001   -0.00313225
     atom    3 type  1   force =     0.00000001    0.00000000   -0.00015157
     atom    4 type  1   force =     0.00000000   -0.00000000    0.00054095
     atom    5 type  1   force =    -0.00000000   -0.00000000    0.00362966
     atom    6 type  1   force =    -0.00000000    0.00000000    0.00373088
     atom    7 type  2   force =     0.00000000    0.00000001   -0.00180118
     atom    8 type  2   force =     0.00000000   -0.00000001   -0.00191877
     atom    9 type  2   force =     0.00000000    0.00000000   -0.00019712
     atom   10 type  2   force =    -0.00000000   -0.00000000    0.00029484
     atom   11 type  2   force =     0.00000000    0.00000000    0.00174100
     atom   12 type  2   force =    -0.00000000   -0.00000000    0.00218913

     Total force =     0.000997     Total SCF correction =     0.000167
     SCF correction compared to forces is large: reduce conv_thr to get better values


     Computing stress (Cartesian axis) and pressure


     negative rho (up, down):  2.307E-05 0.000E+00
          total   stress  (Ry/bohr**3)                   (kbar)     P=      -11.36
  -0.00008511   0.00000000   0.00000000          -12.52        0.00        0.00
   0.00000000  -0.00007458  -0.00000000            0.00      -10.97       -0.00
   0.00000000  -0.00000000  -0.00007198            0.00       -0.00      -10.59

     Energy error            =      7.0E-06 Ry
     Gradient error          =      6.2E-04 Ry/Bohr

     bfgs converged in  18 scf cycles and  17 bfgs steps
     (criteria: energy <  1.0E-04 Ry, force <  1.0E-03 Ry/Bohr)

     End of BFGS Geometry Optimization

     Final energy             =    -595.0938555134 Ry

     File ./LiAg_110/LiAg_110.bfgs deleted, as requested
Begin final coordinates

ATOMIC_POSITIONS (angstrom)
Ag            0.7806833469        1.1040577469       20.8444796787
Ag            0.7806823194        3.3121661937       18.8310753106
Ag            0.7806850825        1.1040554316       16.6243325897    0   0   0
Ag            0.7806850825        3.3121662948       14.4162217265    0   0   0
Ag            0.7806850825        1.1040554316       12.2081108632    0   0   0
Ag            0.7806850825        3.3121662948       10.0000000000    0   0   0
Li            2.3420540538        3.3121695026       21.1852418908
Li            2.3420539116        1.1040536721       18.7604687333
Li            2.3420552475        3.3121662948       16.6243325897    0   0   0
Li            2.3420552475        1.1040554316       14.4162217265    0   0   0
Li            2.3420552475        3.3121662948       12.2081108632    0   0   0
Li            2.3420552475        1.1040554316       10.0000000000    0   0   0
End final coordinates



     Writing all to output data dir ./LiAg_110/LiAg_110.save/

     init_run     :      6.52s CPU      7.19s WALL (       1 calls)
     electrons    :     80.55s CPU     93.81s WALL (      18 calls)
     update_pot   :      4.15s CPU      4.40s WALL (      17 calls)
     forces       :      4.06s CPU      4.76s WALL (      18 calls)
     force_dftd3  :      0.19s CPU      0.38s WALL (      18 calls)
     stress       :     17.22s CPU     17.92s WALL (      18 calls)
     stres_dftd3  :      0.18s CPU      0.27s WALL (      18 calls)

     Called by init_run:
     wfcinit      :      0.54s CPU      0.91s WALL (       1 calls)
     potinit      :      2.16s CPU      2.19s WALL (       1 calls)
     hinit0       :      3.71s CPU      3.94s WALL (       1 calls)

     Called by electrons:
     c_bands      :     67.71s CPU     76.71s WALL (     150 calls)
     sum_band     :      9.81s CPU     11.21s WALL (     150 calls)
     v_of_rho     :      1.37s CPU      1.88s WALL (     157 calls)
     newd         :      0.90s CPU      0.97s WALL (     157 calls)
     mix_rho      :      0.18s CPU      0.19s WALL (     150 calls)
     energy_dftd3 :      0.05s CPU      0.05s WALL (      18 calls)

     Called by c_bands:
     init_us_2    :      0.43s CPU      0.47s WALL (    3033 calls)
     init_us_2:cp :      0.43s CPU      0.46s WALL (    3033 calls)
     cegterg      :     62.60s CPU     67.45s WALL (    1350 calls)

     Called by *egterg:
     cdiaghg      :     15.61s CPU     15.79s WALL (    5391 calls)
     h_psi        :     37.79s CPU     41.63s WALL (    5652 calls)
     s_psi        :      1.89s CPU      1.93s WALL (    5652 calls)
     g_psi        :      0.12s CPU      0.12s WALL (    4293 calls)

     Called by h_psi:
     h_psi:calbec :      3.28s CPU      4.02s WALL (    5652 calls)
     vloc_psi     :     32.57s CPU     35.59s WALL (    5652 calls)
     add_vuspsi   :      1.84s CPU      1.92s WALL (    5652 calls)

     General routines
     calbec       :      5.74s CPU      6.75s WALL (    7812 calls)
     fft          :      5.31s CPU      6.05s WALL (    2483 calls)
     ffts         :      2.19s CPU      2.65s WALL (     307 calls)
     fftw         :     35.87s CPU     39.19s WALL (  404708 calls)
     interpolate  :      2.19s CPU      2.50s WALL (     157 calls)

     Parallel routines

     PWSCF        :   1m53.26s CPU   2m10.26s WALL


   This run was terminated on:  12:27:22   4Aug2025            

=------------------------------------------------------------------------------=
   JOB DONE.
=------------------------------------------------------------------------------=
[1754321243.215580] [rome14:3804701:0]           flush.c:57   UCX  ERROR req 0x2edc500: error during flush: Connection reset by remote peer
[1754321243.215916] [rome14:3804701:0]           flush.c:57   UCX  ERROR req 0x2edc500: error during flush: Connection reset by remote peer
