
     Program PWSCF v.7.2 starts on 18Jul2025 at 11:24:26 

     This program is part of the open-source Quantum ESPRESSO suite
     for quantum simulation of materials; please cite
         "P. Giannozzi et al., J. Phys.:Condens. Matter 21 395502 (2009);
         "P. Giannozzi et al., J. Phys.:Condens. Matter 29 465901 (2017);
         "P. Giannozzi et al., J. Chem. Phys. 152 154105 (2020);
          URL http://www.quantum-espresso.org", 
     in publications or presentations arising from this work. More details at
     http://www.quantum-espresso.org/quote

     Parallel version (MPI & OpenMP), running on     128 processor cores
     Number of MPI processes:               128
     Threads/MPI process:                     1

     MPI processes distributed on     2 nodes
     240623 MiB available memory on the printing compute node when the environment starts

     Reading input from Ag_mp-2646971_100.in

     Current dimensions of program PWSCF are:
     Max number of different atomic species (ntypx) = 10
     Max number of k-points (npk) =  40000
     Max angular momentum in pseudopotentials (lmaxx) =  4
     Message from routine iosys:
     restart disabled: needed files not found

     K-points division:     npool     =       4
     R & G space division:  proc/nbgrp/npool/nimage =      32
     Subspace diagonalization in iterative solution of the eigenvalue problem:
     a serial algorithm will be used


     Parallelization info
     --------------------
     sticks:   dense  smooth     PW     G-vecs:    dense   smooth      PW
     Min          48      21      6                12330     3594     586
     Max          49      23      7                12365     3630     611
     Sum        1565     681    213               395265   115253   18959

     Using Slab Decomposition



     bravais-lattice index     =            0
     lattice parameter (alat)  =       6.2575  a.u.
     unit-cell volume          =    2092.4187 (a.u.)^3
     number of atoms/cell      =            6
     number of atomic types    =            1
     number of electrons       =        66.00
     number of Kohn-Sham states=           40
     kinetic-energy cutoff     =      55.0000  Ry
     charge density cutoff     =     500.0000  Ry
     scf convergence threshold =      1.0E-06
     mixing beta               =       0.3000
     number of iterations used =            8  plain     mixing
     energy convergence thresh.=      1.0E-04
     force convergence thresh. =      1.0E-03
     Exchange-correlation= PBE
                           (   1   4   3   4   0   0   0)
     nstep                     =          500


     celldm(1)=   6.257465  celldm(2)=   0.000000  celldm(3)=   0.000000
     celldm(4)=   0.000000  celldm(5)=   0.000000  celldm(6)=   0.000000

     crystal axes: (cart. coord. in units of alat)
               a(1) = (   1.000000   0.000000   0.000000 )  
               a(2) = (   0.000000   1.000000   0.000000 )  
               a(3) = (   0.000000   0.000000   8.539909 )  

     reciprocal axes: (cart. coord. in units 2 pi/alat)
               b(1) = (  1.000000 -0.000000  0.000000 )  
               b(2) = (  0.000000  1.000000  0.000000 )  
               b(3) = ( -0.000000 -0.000000  0.117097 )  


     PseudoPot. # 1 for Ag read from file:
     /home/ecastro/trabajo_final/pseudos/Ag.pbe-n-rrkjus_psl.1.0.0.UPF
     MD5 check sum: 81cdf87bacf708300839c66ee23ce017
     Pseudo is Ultrasoft + core correction, Zval = 11.0
     Generated using &quot;atomic&quot; code by A. Dal Corso  v.6.2.2
     Using radial grid of 1237 points,  6 beta functions with: 
                l(1) =   0
                l(2) =   0
                l(3) =   1
                l(4) =   1
                l(5) =   2
                l(6) =   2
     Q(r) pseudized with 0 coefficients 


     atomic species   valence    mass     pseudopotential
        Ag            11.00   107.86820     Ag( 1.00)

     No symmetry found



   Cartesian axes

     site n.     atom                  positions (alat units)
         1           Ag  tau(   1) = (   0.7500000   0.7500000   5.0199546  )
         2           Ag  tau(   2) = (   0.2500000   0.2500000   5.5199546  )
         3           Ag  tau(   3) = (   0.7500000   0.7500000   4.0199546  )
         4           Ag  tau(   4) = (   0.2500000   0.2500000   4.5199546  )
         5           Ag  tau(   5) = (   0.7500000   0.7500000   3.0199546  )
         6           Ag  tau(   6) = (   0.2500000   0.2500000   3.5199546  )

     --------------------------------------------
     DFT-D3 Dispersion Correction (no 3-body):
     --------------------------------------------
       Reference C6 values for interpolation: 

         atom   Coordination number   C6
         Ag         0.000           853.49
         Ag         0.968           537.23

       Values used:

         atom   Coordination number  R0_AB[au]  C6      C8
         Ag         7.250            3.147    537.23  47741.54
         Ag         4.234            3.147    537.23  47741.54
         Ag         7.503            3.147    537.23  47741.54
         Ag         7.503            3.147    537.23  47741.54
         Ag         4.234            3.147    537.23  47741.54
         Ag         7.250            3.147    537.23  47741.54

         Molecular C6 ( Ry / a.u.^6 ) =     19340.14


     number of k points=    34  Methfessel-Paxton smearing, width (Ry)=  0.0300
                       cart. coord. in units 2pi/alat
        k(    1) = (   0.0000000   0.0000000   0.0000000), wk =   0.0312500
        k(    2) = (   0.0000000   0.1250000   0.0000000), wk =   0.0625000
        k(    3) = (   0.0000000   0.2500000   0.0000000), wk =   0.0625000
        k(    4) = (   0.0000000   0.3750000   0.0000000), wk =   0.0625000
        k(    5) = (   0.0000000  -0.5000000   0.0000000), wk =   0.0312500
        k(    6) = (   0.1250000  -0.0000000   0.0000000), wk =   0.0625000
        k(    7) = (   0.1250000   0.1250000   0.0000000), wk =   0.0625000
        k(    8) = (   0.1250000   0.2500000   0.0000000), wk =   0.0625000
        k(    9) = (   0.1250000   0.3750000   0.0000000), wk =   0.0625000
        k(   10) = (   0.1250000  -0.5000000   0.0000000), wk =   0.0625000
        k(   11) = (   0.1250000  -0.3750000   0.0000000), wk =   0.0625000
        k(   12) = (   0.1250000  -0.2500000   0.0000000), wk =   0.0625000
        k(   13) = (   0.1250000  -0.1250000   0.0000000), wk =   0.0625000
        k(   14) = (   0.2500000  -0.0000000   0.0000000), wk =   0.0625000
        k(   15) = (   0.2500000   0.1250000   0.0000000), wk =   0.0625000
        k(   16) = (   0.2500000   0.2500000   0.0000000), wk =   0.0625000
        k(   17) = (   0.2500000   0.3750000   0.0000000), wk =   0.0625000
        k(   18) = (   0.2500000  -0.5000000   0.0000000), wk =   0.0625000
        k(   19) = (   0.2500000  -0.3750000   0.0000000), wk =   0.0625000
        k(   20) = (   0.2500000  -0.2500000   0.0000000), wk =   0.0625000
        k(   21) = (   0.2500000  -0.1250000   0.0000000), wk =   0.0625000
        k(   22) = (   0.3750000  -0.0000000   0.0000000), wk =   0.0625000
        k(   23) = (   0.3750000   0.1250000   0.0000000), wk =   0.0625000
        k(   24) = (   0.3750000   0.2500000   0.0000000), wk =   0.0625000
        k(   25) = (   0.3750000   0.3750000   0.0000000), wk =   0.0625000
        k(   26) = (   0.3750000  -0.5000000   0.0000000), wk =   0.0625000
        k(   27) = (   0.3750000  -0.3750000   0.0000000), wk =   0.0625000
        k(   28) = (   0.3750000  -0.2500000   0.0000000), wk =   0.0625000
        k(   29) = (   0.3750000  -0.1250000   0.0000000), wk =   0.0625000
        k(   30) = (  -0.5000000   0.0000000   0.0000000), wk =   0.0312500
        k(   31) = (  -0.5000000   0.1250000   0.0000000), wk =   0.0625000
        k(   32) = (  -0.5000000   0.2500000   0.0000000), wk =   0.0625000
        k(   33) = (  -0.5000000   0.3750000   0.0000000), wk =   0.0625000
        k(   34) = (  -0.5000000  -0.5000000   0.0000000), wk =   0.0312500

     Dense  grid:   395265 G-vectors     FFT dimensions: (  45,  45, 384)

     Smooth grid:   115253 G-vectors     FFT dimensions: (  30,  30, 256)

     Estimated max dynamical RAM per process >      21.66 MB

     Estimated total dynamical RAM >       2.42 GB
     Cannot read rho : file not found

     Initial potential from superposition of free atoms

     starting charge      65.9976, renormalised to      66.0000

     negative rho (up, down):  5.432E-05 0.000E+00
     Message from routine qexsd_readschema :
     xml data file ./Ag_100/Ag_100.save/data-file-schema.xml not found
     Cannot read wfcs: file not found
     Starting wfcs are   54 randomized atomic wfcs

     total cpu time spent up to now is        6.4 secs

     per-process dynamical memory:   173.3 Mb

     Self-consistent Calculation

     iteration #  1     ecut=    55.00 Ry     beta= 0.30
     Davidson diagonalization with overlap
     c_bands:  1 eigenvalues not converged
     c_bands:  1 eigenvalues not converged
     ethr =  1.00E-05,  avg # of iterations = 16.9

     negative rho (up, down):  4.454E-05 0.000E+00

     total cpu time spent up to now is        9.9 secs

     total energy              =    -505.64846094 Ry
     estimated scf accuracy    <       0.12777645 Ry

     iteration #  2     ecut=    55.00 Ry     beta= 0.30
     Davidson diagonalization with overlap
     ethr =  1.94E-04,  avg # of iterations =  6.5

     negative rho (up, down):  3.941E-05 0.000E+00

     total cpu time spent up to now is       11.3 secs

     total energy              =    -505.65040086 Ry
     estimated scf accuracy    <       0.26522435 Ry

     iteration #  3     ecut=    55.00 Ry     beta= 0.30
     Davidson diagonalization with overlap
     ethr =  1.94E-04,  avg # of iterations =  3.3

     negative rho (up, down):  2.942E-05 0.000E+00

     total cpu time spent up to now is       12.3 secs

     total energy              =    -505.68140486 Ry
     estimated scf accuracy    <       0.01275974 Ry

     iteration #  4     ecut=    55.00 Ry     beta= 0.30
     Davidson diagonalization with overlap
     ethr =  1.93E-05,  avg # of iterations =  7.5

     negative rho (up, down):  2.486E-05 0.000E+00

     total cpu time spent up to now is       13.1 secs

     total energy              =    -505.68277506 Ry
     estimated scf accuracy    <       0.00067272 Ry

     iteration #  5     ecut=    55.00 Ry     beta= 0.30
     Davidson diagonalization with overlap
     ethr =  1.02E-06,  avg # of iterations =  6.0

     negative rho (up, down):  2.492E-05 0.000E+00

     total cpu time spent up to now is       14.0 secs

     total energy              =    -505.68289948 Ry
     estimated scf accuracy    <       0.00018123 Ry

     iteration #  6     ecut=    55.00 Ry     beta= 0.30
     Davidson diagonalization with overlap
     ethr =  2.75E-07,  avg # of iterations =  2.5

     negative rho (up, down):  2.272E-05 0.000E+00

     total cpu time spent up to now is       14.7 secs

     total energy              =    -505.68287161 Ry
     estimated scf accuracy    <       0.00105394 Ry

     iteration #  7     ecut=    55.00 Ry     beta= 0.30
     Davidson diagonalization with overlap
     ethr =  2.75E-07,  avg # of iterations =  1.2

     negative rho (up, down):  2.206E-05 0.000E+00

     total cpu time spent up to now is       15.3 secs

     total energy              =    -505.68292746 Ry
     estimated scf accuracy    <       0.00002274 Ry

     iteration #  8     ecut=    55.00 Ry     beta= 0.30
     Davidson diagonalization with overlap
     ethr =  3.45E-08,  avg # of iterations =  3.4

     negative rho (up, down):  2.101E-05 0.000E+00

     total cpu time spent up to now is       16.0 secs

     total energy              =    -505.68293145 Ry
     estimated scf accuracy    <       0.00000383 Ry

     iteration #  9     ecut=    55.00 Ry     beta= 0.30
     Davidson diagonalization with overlap
     ethr =  5.81E-09,  avg # of iterations =  3.0

     negative rho (up, down):  1.909E-05 0.000E+00

     total cpu time spent up to now is       16.4 secs

     End of self-consistent calculation

          k = 0.0000 0.0000 0.0000 ( 14575 PWs)   bands (ev):

    -5.5692  -4.5802  -4.4215  -4.3565  -3.9885  -3.9444  -3.4326  -3.3468
    -3.2889  -3.2340  -3.2340  -3.1561  -3.0523  -3.0523  -2.8507  -2.8056
    -2.7303  -2.7303  -2.3671  -2.3658  -2.2730  -2.2730  -2.1309  -1.9967
    -1.9124  -1.8180  -1.7760  -1.7760  -1.5366  -1.4614  -1.4614  -1.3895
    -1.3291   0.1555   2.1017   3.9286   5.2853   5.8345   5.8487   6.9108

          k = 0.0000 0.1250 0.0000 ( 14507 PWs)   bands (ev):

    -5.3400  -4.4488  -4.3290  -4.2509  -3.9959  -3.8278  -3.5078  -3.4808
    -3.3337  -3.3205  -3.2412  -3.1176  -3.0128  -2.9918  -2.8830  -2.6594
    -2.6257  -2.5631  -2.5613  -2.3112  -2.3066  -2.1183  -2.0689  -2.0610
    -2.0224  -1.8785  -1.8395  -1.6133  -1.6105  -1.6100  -1.4157  -1.3652
    -1.2510   0.3859   2.3691   4.2070   5.5219   6.0719   6.0744   7.1068

          k = 0.0000 0.2500 0.0000 ( 14429 PWs)   bands (ev):

    -4.7449  -4.3113  -4.1490  -4.1356  -3.9346  -3.6423  -3.6024  -3.5610
    -3.5533  -3.3625  -3.1756  -3.1059  -2.9357  -2.7479  -2.6318  -2.6032
    -2.5805  -2.3850  -2.3752  -2.3008  -2.2161  -2.2084  -2.1067  -1.9908
    -1.9816  -1.9292  -1.9037  -1.8918  -1.5857  -1.5294  -1.3157  -1.3142
    -0.9071   1.0258   3.0613   4.3881   4.9273   5.5550   6.2230   6.6607

          k = 0.0000 0.3750 0.0000 ( 14361 PWs)   bands (ev):

    -4.3947  -4.3945  -4.1009  -3.9888  -3.7454  -3.7396  -3.5411  -3.5131
    -3.4690  -3.3190  -3.2468  -2.9162  -2.7792  -2.7105  -2.6625  -2.6496
    -2.3867  -2.3129  -2.3080  -2.2499  -2.2007  -2.1012  -2.0805  -2.0446
    -1.9263  -1.9160  -1.5086  -1.4960  -1.4661  -1.2572  -1.2403  -1.1799
     0.0514   1.7527   2.0735   2.7858   4.1169   4.3237   6.5500   6.8636

          k = 0.0000-0.5000 0.0000 ( 14350 PWs)   bands (ev):

    -4.4475  -4.4475  -3.9735  -3.9735  -3.8118  -3.8118  -3.3539  -3.3539
    -3.3400  -3.3400  -3.1629  -3.1629  -2.7243  -2.7242  -2.5488  -2.5487
    -2.5080  -2.5080  -2.1853  -2.1853  -2.1217  -2.1217  -1.9874  -1.9874
    -1.9386  -1.9385  -1.4850  -1.4849  -1.2220  -1.2220  -0.1978  -0.1977
     0.5108   0.5108   1.6928   1.6929   3.8470   3.8471   6.7094   6.7094

          k = 0.1250-0.0000 0.0000 ( 14507 PWs)   bands (ev):

    -5.3400  -4.4488  -4.3290  -4.2509  -3.9959  -3.8278  -3.5078  -3.4808
    -3.3337  -3.3205  -3.2412  -3.1176  -3.0128  -2.9918  -2.8830  -2.6594
    -2.6257  -2.5631  -2.5613  -2.3112  -2.3066  -2.1183  -2.0689  -2.0610
    -2.0224  -1.8785  -1.8395  -1.6133  -1.6105  -1.6100  -1.4157  -1.3652
    -1.2510   0.3859   2.3691   4.2070   5.5219   6.0718   6.0744   7.1068

          k = 0.1250 0.1250 0.0000 ( 14465 PWs)   bands (ev):

    -5.1196  -4.2982  -4.2102  -4.1738  -3.8621  -3.8548  -3.5144  -3.4840
    -3.3705  -3.3512  -3.3130  -3.2250  -3.1783  -2.8521  -2.8315  -2.6274
    -2.5932  -2.5857  -2.5525  -2.2571  -2.2535  -2.1061  -2.0755  -2.0648
    -2.0567  -1.8765  -1.7672  -1.7350  -1.6461  -1.5085  -1.4673  -1.4307
    -1.0527   0.6559   2.6456   4.4832   5.7521   6.2949   6.3092   7.4675

          k = 0.1250 0.2500 0.0000 ( 14449 PWs)   bands (ev):

    -4.5653  -4.1423  -4.0209  -4.0126  -3.8873  -3.6615  -3.6257  -3.5029
    -3.5008  -3.3733  -3.2830  -3.2669  -3.1300  -2.7925  -2.7107  -2.5832
    -2.5634  -2.4575  -2.3887  -2.2816  -2.1903  -2.1582  -2.0830  -1.9686
    -1.9440  -1.9054  -1.8420  -1.8276  -1.5497  -1.5160  -1.4597  -1.3986
    -0.4552   1.3670   3.3662   4.7272   5.1966   5.8494   6.4328   6.8906

          k = 0.1250 0.3750 0.0000 ( 14401 PWs)   bands (ev):

    -4.2607  -4.2514  -4.0276  -3.8816  -3.7553  -3.7275  -3.6529  -3.5838
    -3.4608  -3.2905  -3.2574  -3.0202  -2.9261  -2.8094  -2.5733  -2.5550
    -2.4164  -2.3519  -2.2790  -2.2548  -2.1811  -2.0937  -2.0919  -1.9645
    -1.8821  -1.8671  -1.7274  -1.6152  -1.5008  -1.4458  -1.3071  -0.6755
     0.5863   2.1182   2.4410   3.1540   4.3794   4.5916   6.7206   7.0119

          k = 0.1250-0.5000 0.0000 ( 14406 PWs)   bands (ev):

    -4.3135  -4.3135  -3.9384  -3.9384  -3.7524  -3.7523  -3.6221  -3.6220
    -3.2837  -3.2837  -3.1807  -3.1807  -2.6826  -2.6826  -2.6271  -2.6271
    -2.3560  -2.3560  -2.2286  -2.2286  -2.1172  -2.1171  -1.9702  -1.9701
    -1.8196  -1.8196  -1.6168  -1.6167  -1.5364  -1.5364   0.0650   0.0650
     0.9314   0.9315   2.1761   2.1762   4.0951   4.0952   6.8481   6.8481

          k = 0.1250-0.3750 0.0000 ( 14401 PWs)   bands (ev):

    -4.2607  -4.2514  -4.0276  -3.8816  -3.7553  -3.7275  -3.6529  -3.5838
    -3.4608  -3.2905  -3.2574  -3.0202  -2.9261  -2.8094  -2.5733  -2.5550
    -2.4164  -2.3519  -2.2790  -2.2548  -2.1811  -2.0937  -2.0919  -1.9645
    -1.8821  -1.8671  -1.7274  -1.6152  -1.5008  -1.4458  -1.3071  -0.6755
     0.5863   2.1182   2.4410   3.1540   4.3794   4.5916   6.7207   7.0124

          k = 0.1250-0.2500 0.0000 ( 14449 PWs)   bands (ev):

    -4.5653  -4.1423  -4.0209  -4.0126  -3.8873  -3.6615  -3.6257  -3.5029
    -3.5008  -3.3733  -3.2830  -3.2669  -3.1300  -2.7925  -2.7107  -2.5832
    -2.5634  -2.4575  -2.3887  -2.2816  -2.1903  -2.1582  -2.0830  -1.9686
    -1.9440  -1.9054  -1.8420  -1.8276  -1.5497  -1.5160  -1.4597  -1.3986
    -0.4552   1.3670   3.3662   4.7272   5.1966   5.8494   6.4329   6.8907

          k = 0.1250-0.1250 0.0000 ( 14465 PWs)   bands (ev):

    -5.1196  -4.2982  -4.2102  -4.1738  -3.8621  -3.8548  -3.5144  -3.4840
    -3.3705  -3.3512  -3.3130  -3.2250  -3.1783  -2.8521  -2.8315  -2.6274
    -2.5932  -2.5857  -2.5525  -2.2571  -2.2535  -2.1061  -2.0755  -2.0648
    -2.0567  -1.8765  -1.7672  -1.7350  -1.6461  -1.5085  -1.4673  -1.4307
    -1.0527   0.6559   2.6456   4.4832   5.7521   6.2949   6.3092   7.4679

          k = 0.2500-0.0000 0.0000 ( 14429 PWs)   bands (ev):

    -4.7449  -4.3113  -4.1490  -4.1356  -3.9346  -3.6423  -3.6024  -3.5610
    -3.5533  -3.3625  -3.1756  -3.1059  -2.9357  -2.7479  -2.6318  -2.6032
    -2.5805  -2.3850  -2.3752  -2.3008  -2.2161  -2.2084  -2.1067  -1.9908
    -1.9816  -1.9292  -1.9037  -1.8918  -1.5857  -1.5294  -1.3157  -1.3142
    -0.9071   1.0258   3.0613   4.3881   4.9273   5.5550   6.2230   6.6607

          k = 0.2500 0.1250 0.0000 ( 14449 PWs)   bands (ev):

    -4.5653  -4.1423  -4.0209  -4.0126  -3.8873  -3.6615  -3.6257  -3.5029
    -3.5008  -3.3733  -3.2830  -3.2669  -3.1300  -2.7925  -2.7107  -2.5832
    -2.5634  -2.4575  -2.3887  -2.2816  -2.1903  -2.1582  -2.0830  -1.9686
    -1.9440  -1.9054  -1.8420  -1.8276  -1.5497  -1.5160  -1.4597  -1.3986
    -0.4552   1.3670   3.3662   4.7272   5.1966   5.8494   6.4328   6.8906

          k = 0.2500 0.2500 0.0000 ( 14420 PWs)   bands (ev):

    -4.2267  -3.9076  -3.9024  -3.8826  -3.6626  -3.6226  -3.6213  -3.4406
    -3.4345  -3.4275  -3.4031  -3.4022  -3.3413  -2.9202  -2.7062  -2.6658
    -2.4941  -2.3799  -2.3618  -2.1637  -2.1063  -2.0650  -2.0296  -2.0252
    -1.9368  -1.9323  -1.8614  -1.7323  -1.6557  -1.5848  -1.3636  -0.8874
     0.4193   2.2032   4.1526   5.1702   5.9346   6.1220   6.4406   6.8794

          k = 0.2500 0.3750 0.0000 ( 14394 PWs)   bands (ev):

    -4.1221  -4.0052  -3.9828  -3.8864  -3.8588  -3.7555  -3.5987  -3.5078
    -3.4497  -3.3913  -3.2352  -3.0998  -2.9996  -2.8436  -2.6487  -2.5915
    -2.4195  -2.3317  -2.1542  -2.1524  -2.0811  -2.0441  -2.0383  -1.9643
    -1.8757  -1.8666  -1.8270  -1.7568  -1.6400  -1.4060  -0.9077   0.1808
     1.6027   2.8770   3.3776   4.0141   5.1631   5.3739   7.0588   7.4163

          k = 0.2500-0.5000 0.0000 ( 14414 PWs)   bands (ev):

    -4.0936  -4.0936  -3.9918  -3.9917  -3.8733  -3.8732  -3.6063  -3.6063
    -3.4329  -3.4329  -3.1009  -3.1008  -2.7233  -2.7232  -2.5076  -2.5076
    -2.4044  -2.4044  -2.1366  -2.1365  -2.0422  -2.0421  -1.9860  -1.9859
    -1.7840  -1.7840  -1.7702  -1.7700  -1.5885  -1.5885   0.7016   0.7016
     1.8097   1.8097   3.2470   3.2470   4.8544   4.8545   7.2871   7.2871

          k = 0.2500-0.3750 0.0000 ( 14394 PWs)   bands (ev):

    -4.1221  -4.0052  -3.9828  -3.8864  -3.8588  -3.7555  -3.5987  -3.5078
    -3.4497  -3.3913  -3.2352  -3.0998  -2.9996  -2.8436  -2.6487  -2.5915
    -2.4195  -2.3317  -2.1542  -2.1524  -2.0811  -2.0441  -2.0383  -1.9643
    -1.8757  -1.8666  -1.8270  -1.7568  -1.6400  -1.4060  -0.9077   0.1808
     1.6027   2.8770   3.3776   4.0141   5.1631   5.3738   7.0586   7.3386

          k = 0.2500-0.2500 0.0000 ( 14420 PWs)   bands (ev):

    -4.2267  -3.9076  -3.9024  -3.8826  -3.6626  -3.6226  -3.6213  -3.4406
    -3.4345  -3.4275  -3.4031  -3.4022  -3.3413  -2.9202  -2.7062  -2.6658
    -2.4941  -2.3799  -2.3618  -2.1637  -2.1063  -2.0650  -2.0296  -2.0252
    -1.9368  -1.9323  -1.8614  -1.7323  -1.6557  -1.5848  -1.3636  -0.8874
     0.4193   2.2032   4.1526   5.1702   5.9345   6.1220   6.4406   6.8794

          k = 0.2500-0.1250 0.0000 ( 14449 PWs)   bands (ev):

    -4.5653  -4.1423  -4.0209  -4.0126  -3.8873  -3.6615  -3.6257  -3.5029
    -3.5008  -3.3733  -3.2830  -3.2669  -3.1300  -2.7925  -2.7107  -2.5832
    -2.5634  -2.4575  -2.3887  -2.2816  -2.1903  -2.1582  -2.0830  -1.9686
    -1.9440  -1.9054  -1.8420  -1.8276  -1.5497  -1.5160  -1.4597  -1.3986
    -0.4552   1.3670   3.3662   4.7272   5.1966   5.8494   6.4329   6.8907

          k = 0.3750-0.0000 0.0000 ( 14361 PWs)   bands (ev):

    -4.3947  -4.3945  -4.1009  -3.9888  -3.7454  -3.7396  -3.5411  -3.5131
    -3.4690  -3.3190  -3.2468  -2.9162  -2.7792  -2.7105  -2.6625  -2.6496
    -2.3867  -2.3129  -2.3080  -2.2499  -2.2007  -2.1012  -2.0805  -2.0446
    -1.9263  -1.9160  -1.5086  -1.4960  -1.4661  -1.2572  -1.2403  -1.1799
     0.0514   1.7527   2.0735   2.7858   4.1169   4.3237   6.5500   6.8630

          k = 0.3750 0.1250 0.0000 ( 14401 PWs)   bands (ev):

    -4.2607  -4.2514  -4.0276  -3.8816  -3.7553  -3.7275  -3.6529  -3.5838
    -3.4608  -3.2905  -3.2574  -3.0202  -2.9261  -2.8094  -2.5733  -2.5550
    -2.4164  -2.3519  -2.2790  -2.2548  -2.1811  -2.0937  -2.0919  -1.9645
    -1.8821  -1.8671  -1.7274  -1.6152  -1.5008  -1.4458  -1.3071  -0.6755
     0.5863   2.1182   2.4410   3.1540   4.3794   4.5916   6.7208   7.0125

          k = 0.3750 0.2500 0.0000 ( 14394 PWs)   bands (ev):

    -4.1221  -4.0052  -3.9828  -3.8864  -3.8588  -3.7555  -3.5987  -3.5078
    -3.4497  -3.3913  -3.2352  -3.0998  -2.9996  -2.8436  -2.6487  -2.5915
    -2.4195  -2.3317  -2.1542  -2.1524  -2.0811  -2.0441  -2.0383  -1.9643
    -1.8757  -1.8666  -1.8270  -1.7568  -1.6400  -1.4060  -0.9077   0.1808
     1.6027   2.8770   3.3776   4.0141   5.1631   5.3738   7.0587   7.3407

          k = 0.3750 0.3750 0.0000 ( 14360 PWs)   bands (ev):

    -4.2665  -4.1903  -3.9767  -3.9012  -3.8662  -3.7304  -3.6468  -3.6286
    -3.4536  -3.4097  -3.0679  -3.0528  -2.9410  -2.9034  -2.7348  -2.4636
    -2.1967  -2.1139  -2.0465  -2.0304  -1.9978  -1.9653  -1.9343  -1.9332
    -1.9133  -1.8695  -1.8040  -1.6722  -1.6382  -1.3342   0.0202   1.3361
     2.8670   3.1230   4.5639   4.5804   5.5052   5.9317   6.4331   6.4500

          k = 0.3750-0.5000 0.0000 ( 14356 PWs)   bands (ev):

    -4.3039  -4.3039  -3.9673  -3.9672  -3.8159  -3.8159  -3.7121  -3.7120
    -3.4595  -3.4595  -3.0851  -3.0850  -2.8830  -2.8830  -2.3977  -2.3977
    -2.1338  -2.1337  -1.9909  -1.9908  -1.9411  -1.9409  -1.9168  -1.9167
    -1.8410  -1.8409  -1.7186  -1.7185  -1.4456  -1.4456   1.5663   1.5663
     2.9134   2.9134   4.4987   4.4987   6.0686   6.0686   6.4951   6.4951

          k = 0.3750-0.3750 0.0000 ( 14360 PWs)   bands (ev):

    -4.2665  -4.1904  -3.9767  -3.9012  -3.8662  -3.7304  -3.6468  -3.6286
    -3.4536  -3.4097  -3.0679  -3.0528  -2.9410  -2.9034  -2.7348  -2.4636
    -2.1967  -2.1140  -2.0465  -2.0304  -1.9978  -1.9653  -1.9343  -1.9332
    -1.9133  -1.8695  -1.8040  -1.6722  -1.6382  -1.3342   0.0202   1.3361
     2.8670   3.1230   4.5639   4.5804   5.5052   5.9318   6.4331   6.4500

          k = 0.3750-0.2500 0.0000 ( 14394 PWs)   bands (ev):

    -4.1221  -4.0052  -3.9828  -3.8864  -3.8588  -3.7555  -3.5987  -3.5078
    -3.4497  -3.3913  -3.2352  -3.0998  -2.9996  -2.8436  -2.6487  -2.5915
    -2.4195  -2.3317  -2.1542  -2.1524  -2.0811  -2.0441  -2.0383  -1.9643
    -1.8757  -1.8666  -1.8270  -1.7568  -1.6400  -1.4060  -0.9077   0.1808
     1.6027   2.8770   3.3776   4.0141   5.1631   5.3738   7.0586   7.3386

          k = 0.3750-0.1250 0.0000 ( 14401 PWs)   bands (ev):

    -4.2607  -4.2514  -4.0276  -3.8816  -3.7553  -3.7275  -3.6529  -3.5838
    -3.4608  -3.2905  -3.2574  -3.0202  -2.9261  -2.8094  -2.5733  -2.5550
    -2.4164  -2.3519  -2.2790  -2.2548  -2.1811  -2.0937  -2.0919  -1.9645
    -1.8821  -1.8671  -1.7274  -1.6152  -1.5008  -1.4458  -1.3071  -0.6755
     0.5863   2.1182   2.4410   3.1540   4.3794   4.5916   6.7206   7.0118

          k =-0.5000 0.0000 0.0000 ( 14350 PWs)   bands (ev):

    -4.4475  -4.4475  -3.9735  -3.9735  -3.8118  -3.8118  -3.3539  -3.3539
    -3.3400  -3.3400  -3.1629  -3.1629  -2.7243  -2.7242  -2.5488  -2.5487
    -2.5080  -2.5080  -2.1853  -2.1853  -2.1217  -2.1217  -1.9874  -1.9874
    -1.9386  -1.9385  -1.4850  -1.4849  -1.2220  -1.2220  -0.1978  -0.1977
     0.5108   0.5108   1.6928   1.6929   3.8470   3.8471   6.7094   6.7094

          k =-0.5000 0.1250 0.0000 ( 14406 PWs)   bands (ev):

    -4.3135  -4.3135  -3.9384  -3.9384  -3.7524  -3.7523  -3.6221  -3.6220
    -3.2837  -3.2837  -3.1807  -3.1807  -2.6826  -2.6826  -2.6271  -2.6271
    -2.3560  -2.3560  -2.2286  -2.2286  -2.1172  -2.1171  -1.9702  -1.9701
    -1.8196  -1.8196  -1.6168  -1.6167  -1.5364  -1.5364   0.0650   0.0650
     0.9314   0.9315   2.1761   2.1762   4.0951   4.0952   6.8481   6.8481

          k =-0.5000 0.2500 0.0000 ( 14414 PWs)   bands (ev):

    -4.0936  -4.0936  -3.9918  -3.9917  -3.8733  -3.8732  -3.6063  -3.6063
    -3.4329  -3.4329  -3.1009  -3.1008  -2.7233  -2.7232  -2.5076  -2.5076
    -2.4044  -2.4044  -2.1366  -2.1365  -2.0422  -2.0421  -1.9860  -1.9859
    -1.7840  -1.7840  -1.7702  -1.7700  -1.5885  -1.5885   0.7016   0.7016
     1.8097   1.8097   3.2470   3.2470   4.8544   4.8545   7.2871   7.2871

          k =-0.5000 0.3750 0.0000 ( 14356 PWs)   bands (ev):

    -4.3039  -4.3039  -3.9673  -3.9672  -3.8159  -3.8159  -3.7121  -3.7120
    -3.4595  -3.4595  -3.0851  -3.0850  -2.8830  -2.8830  -2.3977  -2.3977
    -2.1338  -2.1337  -1.9909  -1.9908  -1.9411  -1.9409  -1.9168  -1.9167
    -1.8410  -1.8409  -1.7186  -1.7185  -1.4456  -1.4456   1.5663   1.5663
     2.9134   2.9134   4.4987   4.4987   6.0686   6.0687   6.4951   6.4951

          k =-0.5000-0.5000 0.0000 ( 14372 PWs)   bands (ev):

    -4.3933  -4.3933  -3.9482  -3.9482  -3.8645  -3.8644  -3.7741  -3.7741
    -3.4308  -3.4308  -3.2042  -3.2041  -2.8756  -2.8756  -2.1308  -2.1308
    -2.0695  -2.0694  -1.9725  -1.9725  -1.9315  -1.9314  -1.9154  -1.9152
    -1.8380  -1.8379  -1.5760  -1.5757  -1.4223  -1.4223   2.1690   2.1690
     3.7945   3.7945   5.3173   5.3173   5.6534   5.6535   5.8100   5.8100

     the Fermi energy is     1.5085 ev

!    total energy              =    -505.68293197 Ry
     estimated scf accuracy    <       0.00000078 Ry
     smearing contrib. (-TS)   =      -0.00093729 Ry
     internal energy E=F+TS    =    -505.68199469 Ry

     The total energy is F=E-TS. E is the sum of the following terms:
     one-electron contribution =   -5320.21796015 Ry
     hartree contribution      =    2706.70903193 Ry
     xc contribution           =    -133.80724225 Ry
     ewald contribution        =    2241.78684754 Ry
     DFT-D3 Dispersion         =      -0.15267177 Ry

     convergence has been achieved in   9 iterations

     negative rho (up, down):  1.909E-05 0.000E+00

     Forces acting on atoms (cartesian axes, Ry/au):

     atom    1 type  1   force =    -0.00000441   -0.00000063    0.00352030
     atom    2 type  1   force =     0.00000043    0.00000019   -0.00652898
     atom    3 type  1   force =     0.00000361    0.00000017    0.00249223
     atom    4 type  1   force =    -0.00000101    0.00000188   -0.00251396
     atom    5 type  1   force =    -0.00000109    0.00000170    0.00658084
     atom    6 type  1   force =     0.00000246   -0.00000331   -0.00355043
     The non-local contrib.  to forces
     atom    1 type  1   force =    -0.00000492    0.00000010    0.00516508
     atom    2 type  1   force =     0.00000070    0.00000500    0.13620182
     atom    3 type  1   force =     0.00000073   -0.00000010    0.01213461
     atom    4 type  1   force =     0.00000010    0.00000333   -0.01203284
     atom    5 type  1   force =    -0.00000155   -0.00000036   -0.13609172
     atom    6 type  1   force =     0.00000174   -0.00000113   -0.00510756
     The ionic contribution  to forces
     atom    1 type  1   force =    -0.00000000    0.00000000   75.87402203
     atom    2 type  1   force =    -0.00000000   -0.00000000  121.40506488
     atom    3 type  1   force =     0.00000000    0.00000000  -25.17885362
     atom    4 type  1   force =     0.00000000    0.00000000   25.17885362
     atom    5 type  1   force =     0.00000000    0.00000000 -121.40506488
     atom    6 type  1   force =    -0.00000000   -0.00000000  -75.87402203
     The local contribution  to forces
     atom    1 type  1   force =     0.00000121   -0.00000128  -75.87227889
     atom    2 type  1   force =     0.00000140   -0.00000065 -121.54129266
     atom    3 type  1   force =    -0.00000011   -0.00000279   25.16819152
     atom    4 type  1   force =    -0.00000179   -0.00000024  -25.16810780
     atom    5 type  1   force =    -0.00000028    0.00000017  121.54097611
     atom    6 type  1   force =     0.00000031   -0.00000212   75.87202522
     The core correction contribution to forces
     atom    1 type  1   force =     0.00000012   -0.00000005   -0.00082931
     atom    2 type  1   force =     0.00000005    0.00000003   -0.00566512
     atom    3 type  1   force =    -0.00000009   -0.00000011    0.00024710
     atom    4 type  1   force =    -0.00000003   -0.00000012   -0.00024491
     atom    5 type  1   force =     0.00000006   -0.00000011    0.00566312
     atom    6 type  1   force =    -0.00000007   -0.00000002    0.00082995
     The Hubbard contrib.    to forces
     atom    1 type  1   force =     0.00000000    0.00000000    0.00000000
     atom    2 type  1   force =     0.00000000    0.00000000    0.00000000
     atom    3 type  1   force =     0.00000000    0.00000000    0.00000000
     atom    4 type  1   force =     0.00000000    0.00000000    0.00000000
     atom    5 type  1   force =     0.00000000    0.00000000    0.00000000
     atom    6 type  1   force =     0.00000000    0.00000000    0.00000000
     The SCF correction term to forces
     atom    1 type  1   force =    -0.00000125    0.00000119    0.00067691
     atom    2 type  1   force =    -0.00000213   -0.00000361    0.00113194
     atom    3 type  1   force =     0.00000000    0.00000000   -0.00000000
     atom    4 type  1   force =     0.00000000   -0.00000000    0.00000000
     atom    5 type  1   force =     0.00000000    0.00000000   -0.00000000
     atom    6 type  1   force =     0.00000000    0.00000000   -0.00000000

     DFT-D3 dispersion contribution to forces:
     atom    1 type  1   force =    -0.00000000    0.00000000   -0.00318987
     atom    2 type  1   force =     0.00000000    0.00000000   -0.00192420
     atom    3 type  1   force =    -0.00000000   -0.00000000    0.00175246
     atom    4 type  1   force =     0.00000000    0.00000000   -0.00175246
     atom    5 type  1   force =    -0.00000000   -0.00000000    0.00192420
     atom    6 type  1   force =     0.00000000    0.00000000    0.00318987

     Total force =     0.007418     Total SCF correction =     0.001319
     SCF correction compared to forces is large: reduce conv_thr to get better values


     Computing stress (Cartesian axis) and pressure


     negative rho (up, down):  1.909E-05 0.000E+00
          total   stress  (Ry/bohr**3)                   (kbar)     P=      -22.12
  -0.00018312  -0.00000000  -0.00000000          -26.94       -0.00       -0.00
  -0.00000000  -0.00018314  -0.00000000           -0.00      -26.94       -0.00
  -0.00000000  -0.00000000  -0.00008483           -0.00       -0.00      -12.48


     BFGS Geometry Optimization
     Energy error            =      0.0E+00 Ry
     Gradient error          =      6.5E-03 Ry/Bohr

     number of scf cycles    =   1
     number of bfgs steps    =   0

     energy             new  =    -505.6829319737 Ry

     new trust radius        =       0.0065289794 bohr
     new conv_thr            =       0.0000010000 Ry


ATOMIC_POSITIONS (angstrom)
Ag            2.4834786694        2.4834806687       16.6244788673
Ag            0.8278272305        0.8278271009       18.2748150199
Ag            2.4834810021        2.4834810021       13.3113080028    0   0   0
Ag            0.8278270007        0.8278270007       14.9669620042    0   0   0
Ag            2.4834810021        2.4834810021       10.0000000000    0   0   0
Ag            0.8278270007        0.8278270007       11.6556540014    0   0   0



     Writing config-only to output data dir ./Ag_100/Ag_100.save/
     NEW-OLD atomic charge density approx. for the potential

     negative rho (up, down):  1.915E-05 0.000E+00

     total cpu time spent up to now is       21.2 secs

     per-process dynamical memory:   183.4 Mb

     Self-consistent Calculation

     iteration #  1     ecut=    55.00 Ry     beta= 0.30
     Davidson diagonalization with overlap
     ethr =  1.00E-06,  avg # of iterations =  3.0

     Threshold (ethr) on eigenvalues was too large:
     Diagonalizing with lowered threshold

     Davidson diagonalization with overlap
     ethr =  1.83E-08,  avg # of iterations =  2.7

     negative rho (up, down):  1.914E-05 0.000E+00

     total cpu time spent up to now is       23.6 secs

     total energy              =    -505.68298235 Ry
     estimated scf accuracy    <       0.00001271 Ry

     iteration #  2     ecut=    55.00 Ry     beta= 0.30
     Davidson diagonalization with overlap
     ethr =  1.93E-08,  avg # of iterations =  2.0

     negative rho (up, down):  1.914E-05 0.000E+00

     total cpu time spent up to now is       24.4 secs

     total energy              =    -505.68298308 Ry
     estimated scf accuracy    <       0.00005004 Ry

     iteration #  3     ecut=    55.00 Ry     beta= 0.30
     Davidson diagonalization with overlap
     ethr =  1.93E-08,  avg # of iterations =  1.8

     negative rho (up, down):  1.914E-05 0.000E+00

     total cpu time spent up to now is       25.1 secs

     total energy              =    -505.68298719 Ry
     estimated scf accuracy    <       0.00000243 Ry

     iteration #  4     ecut=    55.00 Ry     beta= 0.30
     Davidson diagonalization with overlap
     ethr =  3.68E-09,  avg # of iterations =  1.2

     negative rho (up, down):  1.914E-05 0.000E+00

     total cpu time spent up to now is       25.6 secs

     total energy              =    -505.68298743 Ry
     estimated scf accuracy    <       0.00000184 Ry

     iteration #  5     ecut=    55.00 Ry     beta= 0.30
     Davidson diagonalization with overlap
     ethr =  2.80E-09,  avg # of iterations =  1.1

     negative rho (up, down):  1.914E-05 0.000E+00

     total cpu time spent up to now is       26.0 secs

     End of self-consistent calculation

          k = 0.0000 0.0000 0.0000 ( 14575 PWs)   bands (ev):

    -5.5717  -4.5853  -4.4234  -4.3583  -3.9934  -3.9482  -3.4386  -3.3527
    -3.2937  -3.2357  -3.2357  -3.1578  -3.0552  -3.0552  -2.8537  -2.8102
    -2.7345  -2.7345  -2.3718  -2.3691  -2.2774  -2.2774  -2.1329  -1.9991
    -1.9159  -1.8212  -1.7802  -1.7802  -1.5390  -1.4643  -1.4643  -1.3916
    -1.3305   0.1538   2.1015   3.9308   5.2875   5.8411   5.8525   6.9137

          k = 0.0000 0.1250 0.0000 ( 14507 PWs)   bands (ev):

    -5.3425  -4.4536  -4.3307  -4.2527  -3.9996  -3.8322  -3.5139  -3.4861
    -3.3353  -3.3225  -3.2447  -3.1212  -3.0169  -2.9956  -2.8870  -2.6631
    -2.6297  -2.5689  -2.5661  -2.3134  -2.3097  -2.1207  -2.0724  -2.0655
    -2.0248  -1.8832  -1.8420  -1.6167  -1.6130  -1.6126  -1.4183  -1.3673
    -1.2529   0.3843   2.3689   4.2089   5.5245   6.0756   6.0809   7.1042

          k = 0.0000 0.2500 0.0000 ( 14429 PWs)   bands (ev):

    -4.7472  -4.3146  -4.1507  -4.1383  -3.9367  -3.6491  -3.6087  -3.5627
    -3.5554  -3.3669  -3.1803  -3.1104  -2.9394  -2.7519  -2.6373  -2.6078
    -2.5859  -2.3879  -2.3784  -2.3030  -2.2188  -2.2124  -2.1103  -1.9938
    -1.9848  -1.9325  -1.9061  -1.8942  -1.5878  -1.5326  -1.3178  -1.3164
    -0.9097   1.0246   3.0609   4.3859   4.9278   5.5511   6.2263   6.6635

          k = 0.0000 0.3750 0.0000 ( 14361 PWs)   bands (ev):

    -4.3973  -4.3958  -4.1056  -3.9917  -3.7475  -3.7414  -3.5435  -3.5194
    -3.4745  -3.3236  -3.2519  -2.9204  -2.7829  -2.7169  -2.6662  -2.6550
    -2.3890  -2.3162  -2.3125  -2.2527  -2.2026  -2.1043  -2.0824  -2.0482
    -1.9293  -1.9189  -1.5110  -1.4980  -1.4688  -1.2596  -1.2421  -1.1843
     0.0479   1.7514   2.0708   2.7817   4.1165   4.3219   6.5501   6.8625

          k = 0.0000-0.5000 0.0000 ( 14350 PWs)   bands (ev):

    -4.4501  -4.4490  -3.9789  -3.9771  -3.8142  -3.8133  -3.3608  -3.3567
    -3.3455  -3.3441  -3.1670  -3.1653  -2.7322  -2.7287  -2.5544  -2.5514
    -2.5121  -2.5085  -2.1891  -2.1882  -2.1243  -2.1230  -1.9907  -1.9899
    -1.9427  -1.9419  -1.4871  -1.4870  -1.2243  -1.2238  -0.2006  -0.1998
     0.5059   0.5076   1.6882   1.6896   3.8449   3.8492   6.7074   6.7096

          k = 0.1250-0.0000 0.0000 ( 14507 PWs)   bands (ev):

    -5.3425  -4.4536  -4.3307  -4.2527  -3.9996  -3.8322  -3.5139  -3.4861
    -3.3353  -3.3225  -3.2447  -3.1212  -3.0169  -2.9956  -2.8870  -2.6631
    -2.6297  -2.5689  -2.5661  -2.3134  -2.3097  -2.1207  -2.0724  -2.0655
    -2.0248  -1.8832  -1.8420  -1.6167  -1.6130  -1.6126  -1.4183  -1.3673
    -1.2529   0.3843   2.3689   4.2089   5.5245   6.0756   6.0809   7.1042

          k = 0.1250 0.1250 0.0000 ( 14465 PWs)   bands (ev):

    -5.1221  -4.3028  -4.2120  -4.1754  -3.8650  -3.8591  -3.5186  -3.4884
    -3.3743  -3.3543  -3.3165  -3.2294  -3.1821  -2.8568  -2.8352  -2.6322
    -2.5972  -2.5909  -2.5579  -2.2595  -2.2565  -2.1096  -2.0790  -2.0672
    -2.0591  -1.8799  -1.7698  -1.7387  -1.6485  -1.5109  -1.4693  -1.4334
    -1.0550   0.6545   2.6453   4.4848   5.7550   6.2987   6.3156   7.4655

          k = 0.1250 0.2500 0.0000 ( 14449 PWs)   bands (ev):

    -4.5678  -4.1454  -4.0229  -4.0151  -3.8893  -3.6648  -3.6279  -3.5093
    -3.5051  -3.3775  -3.2864  -3.2712  -3.1350  -2.7977  -2.7151  -2.5886
    -2.5685  -2.4622  -2.3928  -2.2836  -2.1931  -2.1618  -2.0856  -1.9721
    -1.9465  -1.9073  -1.8441  -1.8315  -1.5525  -1.5180  -1.4628  -1.4007
    -0.4578   1.3661   3.3659   4.7248   5.1973   5.8456   6.4362   6.8935

          k = 0.1250 0.3750 0.0000 ( 14401 PWs)   bands (ev):

    -4.2623  -4.2538  -4.0313  -3.8842  -3.7572  -3.7303  -3.6558  -3.5880
    -3.4663  -3.2956  -3.2627  -3.0260  -2.9302  -2.8135  -2.5787  -2.5588
    -2.4201  -2.3544  -2.2831  -2.2590  -2.1838  -2.0960  -2.0936  -1.9674
    -1.8857  -1.8698  -1.7306  -1.6184  -1.5033  -1.4480  -1.3095  -0.6792
     0.5833   2.1165   2.4391   3.1499   4.3791   4.5896   6.7207   7.0111

          k = 0.1250-0.5000 0.0000 ( 14406 PWs)   bands (ev):

    -4.3160  -4.3151  -3.9414  -3.9411  -3.7564  -3.7557  -3.6260  -3.6237
    -3.2911  -3.2876  -3.1868  -3.1849  -2.6874  -2.6844  -2.6325  -2.6304
    -2.3625  -2.3588  -2.2317  -2.2309  -2.1198  -2.1188  -1.9740  -1.9732
    -1.8229  -1.8223  -1.6194  -1.6187  -1.5394  -1.5390   0.0623   0.0626
     0.9270   0.9280   2.1724   2.1729   4.0931   4.0973   6.8462   6.8484

          k = 0.1250-0.3750 0.0000 ( 14401 PWs)   bands (ev):

    -4.2623  -4.2538  -4.0313  -3.8842  -3.7572  -3.7303  -3.6558  -3.5880
    -3.4663  -3.2956  -3.2627  -3.0260  -2.9302  -2.8135  -2.5787  -2.5588
    -2.4201  -2.3544  -2.2831  -2.2590  -2.1838  -2.0960  -2.0936  -1.9674
    -1.8857  -1.8698  -1.7306  -1.6184  -1.5033  -1.4480  -1.3095  -0.6792
     0.5833   2.1165   2.4391   3.1499   4.3791   4.5896   6.7207   7.0113

          k = 0.1250-0.2500 0.0000 ( 14449 PWs)   bands (ev):

    -4.5678  -4.1454  -4.0229  -4.0151  -3.8893  -3.6648  -3.6279  -3.5093
    -3.5051  -3.3775  -3.2864  -3.2712  -3.1350  -2.7977  -2.7151  -2.5886
    -2.5685  -2.4622  -2.3928  -2.2836  -2.1931  -2.1618  -2.0856  -1.9721
    -1.9465  -1.9073  -1.8441  -1.8315  -1.5525  -1.5180  -1.4628  -1.4007
    -0.4578   1.3661   3.3659   4.7248   5.1973   5.8456   6.4362   6.8935

          k = 0.1250-0.1250 0.0000 ( 14465 PWs)   bands (ev):

    -5.1221  -4.3028  -4.2120  -4.1754  -3.8650  -3.8591  -3.5186  -3.4884
    -3.3743  -3.3543  -3.3165  -3.2294  -3.1821  -2.8568  -2.8352  -2.6322
    -2.5972  -2.5909  -2.5579  -2.2595  -2.2565  -2.1096  -2.0790  -2.0672
    -2.0591  -1.8799  -1.7698  -1.7387  -1.6485  -1.5109  -1.4693  -1.4334
    -1.0550   0.6545   2.6453   4.4848   5.7550   6.2987   6.3156   7.4657

          k = 0.2500-0.0000 0.0000 ( 14429 PWs)   bands (ev):

    -4.7472  -4.3146  -4.1507  -4.1383  -3.9367  -3.6491  -3.6087  -3.5627
    -3.5554  -3.3669  -3.1803  -3.1104  -2.9394  -2.7519  -2.6373  -2.6078
    -2.5859  -2.3879  -2.3784  -2.3030  -2.2188  -2.2124  -2.1103  -1.9938
    -1.9848  -1.9325  -1.9061  -1.8942  -1.5878  -1.5326  -1.3178  -1.3164
    -0.9097   1.0246   3.0609   4.3859   4.9278   5.5511   6.2263   6.6635

          k = 0.2500 0.1250 0.0000 ( 14449 PWs)   bands (ev):

    -4.5678  -4.1454  -4.0229  -4.0151  -3.8893  -3.6648  -3.6279  -3.5093
    -3.5051  -3.3775  -3.2864  -3.2712  -3.1350  -2.7977  -2.7151  -2.5886
    -2.5685  -2.4622  -2.3928  -2.2836  -2.1931  -2.1618  -2.0856  -1.9721
    -1.9465  -1.9073  -1.8441  -1.8315  -1.5525  -1.5180  -1.4628  -1.4007
    -0.4578   1.3661   3.3659   4.7248   5.1973   5.8456   6.4362   6.8935

          k = 0.2500 0.2500 0.0000 ( 14420 PWs)   bands (ev):

    -4.2292  -3.9098  -3.9045  -3.8848  -3.6640  -3.6243  -3.6224  -3.4444
    -3.4416  -3.4324  -3.4083  -3.4068  -3.3451  -2.9258  -2.7106  -2.6707
    -2.5000  -2.3855  -2.3673  -2.1663  -2.1079  -2.0678  -2.0338  -2.0287
    -1.9386  -1.9349  -1.8638  -1.7347  -1.6588  -1.5866  -1.3663  -0.8908
     0.4169   2.2027   4.1524   5.1674   5.9353   6.1196   6.4364   6.8763

          k = 0.2500 0.3750 0.0000 ( 14394 PWs)   bands (ev):

    -4.1242  -4.0070  -3.9849  -3.8887  -3.8609  -3.7579  -3.6025  -3.5121
    -3.4558  -3.3967  -3.2386  -3.1035  -3.0038  -2.8493  -2.6520  -2.5954
    -2.4250  -2.3355  -2.1590  -2.1558  -2.0841  -2.0464  -2.0411  -1.9668
    -1.8797  -1.8694  -1.8304  -1.7591  -1.6431  -1.4087  -0.9104   0.1771
     1.6002   2.8746   3.3770   4.0101   5.1630   5.3716   7.0569   7.4144

          k = 0.2500-0.5000 0.0000 ( 14414 PWs)   bands (ev):

    -4.0967  -4.0946  -3.9939  -3.9935  -3.8763  -3.8755  -3.6114  -3.6093
    -3.4415  -3.4365  -3.1065  -3.1042  -2.7281  -2.7261  -2.5108  -2.5098
    -2.4114  -2.4073  -2.1394  -2.1394  -2.0462  -2.0442  -1.9905  -1.9885
    -1.7864  -1.7861  -1.7747  -1.7738  -1.5921  -1.5911   0.6988   0.6989
     1.8056   1.8061   3.2442   3.2442   4.8527   4.8560   7.2853   7.2877

          k = 0.2500-0.3750 0.0000 ( 14394 PWs)   bands (ev):

    -4.1242  -4.0070  -3.9849  -3.8887  -3.8609  -3.7579  -3.6025  -3.5121
    -3.4558  -3.3967  -3.2386  -3.1035  -3.0038  -2.8493  -2.6520  -2.5954
    -2.4250  -2.3355  -2.1590  -2.1558  -2.0841  -2.0464  -2.0411  -1.9668
    -1.8797  -1.8694  -1.8304  -1.7591  -1.6431  -1.4087  -0.9104   0.1771
     1.6002   2.8746   3.3770   4.0101   5.1630   5.3716   7.0568   7.3384

          k = 0.2500-0.2500 0.0000 ( 14420 PWs)   bands (ev):

    -4.2292  -3.9098  -3.9045  -3.8848  -3.6640  -3.6243  -3.6224  -3.4444
    -3.4416  -3.4324  -3.4083  -3.4068  -3.3451  -2.9258  -2.7106  -2.6707
    -2.5000  -2.3855  -2.3673  -2.1663  -2.1079  -2.0678  -2.0338  -2.0287
    -1.9386  -1.9349  -1.8638  -1.7347  -1.6588  -1.5866  -1.3663  -0.8908
     0.4169   2.2027   4.1524   5.1674   5.9353   6.1196   6.4364   6.8763

          k = 0.2500-0.1250 0.0000 ( 14449 PWs)   bands (ev):

    -4.5678  -4.1454  -4.0229  -4.0151  -3.8893  -3.6648  -3.6279  -3.5093
    -3.5051  -3.3775  -3.2864  -3.2712  -3.1350  -2.7977  -2.7151  -2.5886
    -2.5685  -2.4622  -2.3928  -2.2836  -2.1931  -2.1618  -2.0856  -1.9721
    -1.9465  -1.9073  -1.8441  -1.8315  -1.5525  -1.5180  -1.4628  -1.4007
    -0.4578   1.3661   3.3659   4.7248   5.1973   5.8456   6.4362   6.8935

          k = 0.3750-0.0000 0.0000 ( 14361 PWs)   bands (ev):

    -4.3973  -4.3958  -4.1056  -3.9917  -3.7475  -3.7414  -3.5435  -3.5194
    -3.4745  -3.3236  -3.2519  -2.9204  -2.7829  -2.7169  -2.6662  -2.6550
    -2.3890  -2.3162  -2.3125  -2.2527  -2.2026  -2.1043  -2.0824  -2.0482
    -1.9293  -1.9189  -1.5110  -1.4980  -1.4688  -1.2596  -1.2421  -1.1843
     0.0479   1.7514   2.0708   2.7817   4.1165   4.3219   6.5501   6.8624

          k = 0.3750 0.1250 0.0000 ( 14401 PWs)   bands (ev):

    -4.2623  -4.2538  -4.0313  -3.8842  -3.7572  -3.7303  -3.6558  -3.5880
    -3.4663  -3.2956  -3.2627  -3.0260  -2.9302  -2.8135  -2.5787  -2.5588
    -2.4201  -2.3544  -2.2831  -2.2590  -2.1838  -2.0960  -2.0936  -1.9674
    -1.8857  -1.8698  -1.7306  -1.6184  -1.5033  -1.4480  -1.3095  -0.6792
     0.5833   2.1165   2.4391   3.1499   4.3791   4.5896   6.7208   7.0113

          k = 0.3750 0.2500 0.0000 ( 14394 PWs)   bands (ev):

    -4.1242  -4.0070  -3.9849  -3.8887  -3.8609  -3.7579  -3.6025  -3.5121
    -3.4558  -3.3967  -3.2386  -3.1035  -3.0038  -2.8493  -2.6520  -2.5954
    -2.4250  -2.3355  -2.1590  -2.1558  -2.0841  -2.0464  -2.0411  -1.9668
    -1.8797  -1.8694  -1.8304  -1.7591  -1.6431  -1.4087  -0.9104   0.1771
     1.6002   2.8746   3.3770   4.0101   5.1630   5.3716   7.0568   7.3402

          k = 0.3750 0.3750 0.0000 ( 14360 PWs)   bands (ev):

    -4.2687  -4.1924  -3.9790  -3.9036  -3.8679  -3.7332  -3.6520  -3.6325
    -3.4578  -3.4134  -3.0734  -3.0576  -2.9458  -2.9071  -2.7375  -2.4689
    -2.1994  -2.1159  -2.0508  -2.0349  -1.9994  -1.9689  -1.9372  -1.9364
    -1.9176  -1.8736  -1.8080  -1.6747  -1.6420  -1.3372   0.0173   1.3323
     2.8647   3.1201   4.5593   4.5804   5.5029   5.9301   6.4303   6.4487

          k = 0.3750-0.5000 0.0000 ( 14356 PWs)   bands (ev):

    -4.3070  -4.3051  -3.9696  -3.9692  -3.8184  -3.8184  -3.7171  -3.7147
    -3.4656  -3.4627  -3.0920  -3.0889  -2.8876  -2.8865  -2.4012  -2.4010
    -2.1370  -2.1353  -1.9941  -1.9939  -1.9452  -1.9433  -1.9201  -1.9199
    -1.8449  -1.8443  -1.7245  -1.7225  -1.4489  -1.4487   1.5634   1.5635
     2.9092   2.9095   4.4959   4.4968   6.0673   6.0685   6.4917   6.4935

          k = 0.3750-0.3750 0.0000 ( 14360 PWs)   bands (ev):

    -4.2687  -4.1924  -3.9790  -3.9036  -3.8679  -3.7332  -3.6520  -3.6325
    -3.4578  -3.4134  -3.0734  -3.0576  -2.9458  -2.9071  -2.7375  -2.4689
    -2.1994  -2.1159  -2.0508  -2.0349  -1.9994  -1.9689  -1.9372  -1.9364
    -1.9176  -1.8736  -1.8080  -1.6747  -1.6420  -1.3372   0.0173   1.3323
     2.8647   3.1201   4.5593   4.5804   5.5029   5.9301   6.4303   6.4487

          k = 0.3750-0.2500 0.0000 ( 14394 PWs)   bands (ev):

    -4.1242  -4.0070  -3.9849  -3.8887  -3.8609  -3.7579  -3.6025  -3.5121
    -3.4558  -3.3967  -3.2386  -3.1035  -3.0038  -2.8493  -2.6520  -2.5954
    -2.4250  -2.3355  -2.1590  -2.1558  -2.0841  -2.0464  -2.0411  -1.9668
    -1.8797  -1.8694  -1.8304  -1.7591  -1.6431  -1.4087  -0.9104   0.1771
     1.6002   2.8746   3.3770   4.0101   5.1630   5.3716   7.0568   7.3384

          k = 0.3750-0.1250 0.0000 ( 14401 PWs)   bands (ev):

    -4.2623  -4.2538  -4.0313  -3.8842  -3.7572  -3.7303  -3.6558  -3.5880
    -3.4663  -3.2956  -3.2627  -3.0260  -2.9302  -2.8135  -2.5787  -2.5588
    -2.4201  -2.3544  -2.2831  -2.2590  -2.1838  -2.0960  -2.0936  -1.9674
    -1.8857  -1.8698  -1.7306  -1.6184  -1.5033  -1.4480  -1.3095  -0.6792
     0.5833   2.1165   2.4391   3.1499   4.3791   4.5896   6.7207   7.0111

          k =-0.5000 0.0000 0.0000 ( 14350 PWs)   bands (ev):

    -4.4501  -4.4490  -3.9789  -3.9771  -3.8142  -3.8133  -3.3608  -3.3567
    -3.3455  -3.3441  -3.1670  -3.1653  -2.7322  -2.7287  -2.5544  -2.5514
    -2.5121  -2.5085  -2.1891  -2.1882  -2.1243  -2.1230  -1.9907  -1.9899
    -1.9427  -1.9419  -1.4871  -1.4870  -1.2243  -1.2238  -0.2006  -0.1998
     0.5059   0.5076   1.6882   1.6896   3.8449   3.8492   6.7074   6.7096

          k =-0.5000 0.1250 0.0000 ( 14406 PWs)   bands (ev):

    -4.3160  -4.3151  -3.9414  -3.9411  -3.7564  -3.7557  -3.6260  -3.6237
    -3.2911  -3.2876  -3.1868  -3.1849  -2.6874  -2.6844  -2.6325  -2.6304
    -2.3625  -2.3588  -2.2317  -2.2309  -2.1198  -2.1188  -1.9740  -1.9732
    -1.8229  -1.8223  -1.6194  -1.6187  -1.5394  -1.5390   0.0623   0.0626
     0.9270   0.9280   2.1724   2.1729   4.0931   4.0973   6.8462   6.8484

          k =-0.5000 0.2500 0.0000 ( 14414 PWs)   bands (ev):

    -4.0967  -4.0946  -3.9939  -3.9935  -3.8763  -3.8755  -3.6114  -3.6093
    -3.4415  -3.4365  -3.1065  -3.1042  -2.7281  -2.7261  -2.5108  -2.5098
    -2.4114  -2.4073  -2.1394  -2.1394  -2.0462  -2.0442  -1.9905  -1.9885
    -1.7864  -1.7861  -1.7747  -1.7738  -1.5921  -1.5911   0.6988   0.6989
     1.8056   1.8061   3.2442   3.2442   4.8527   4.8560   7.2853   7.2877

          k =-0.5000 0.3750 0.0000 ( 14356 PWs)   bands (ev):

    -4.3070  -4.3051  -3.9696  -3.9692  -3.8184  -3.8184  -3.7171  -3.7147
    -3.4656  -3.4627  -3.0920  -3.0889  -2.8876  -2.8865  -2.4012  -2.4010
    -2.1370  -2.1353  -1.9941  -1.9939  -1.9452  -1.9433  -1.9201  -1.9199
    -1.8449  -1.8443  -1.7245  -1.7225  -1.4489  -1.4487   1.5634   1.5635
     2.9092   2.9095   4.4959   4.4968   6.0673   6.0685   6.4917   6.4935

          k =-0.5000-0.5000 0.0000 ( 14372 PWs)   bands (ev):

    -4.3964  -4.3947  -3.9501  -3.9501  -3.8691  -3.8670  -3.7770  -3.7770
    -3.4350  -3.4350  -3.2114  -3.2078  -2.8803  -2.8803  -2.1351  -2.1351
    -2.0713  -2.0709  -1.9738  -1.9734  -1.9359  -1.9342  -1.9189  -1.9175
    -1.8434  -1.8418  -1.5830  -1.5802  -1.4253  -1.4253   2.1660   2.1660
     3.7897   3.7897   5.3145   5.3155   5.6514   5.6521   5.8072   5.8072

     the Fermi energy is     1.5059 ev

!    total energy              =    -505.68298753 Ry
     estimated scf accuracy    <       0.00000003 Ry
     smearing contrib. (-TS)   =      -0.00095201 Ry
     internal energy E=F+TS    =    -505.68203552 Ry

     The total energy is F=E-TS. E is the sum of the following terms:
     one-electron contribution =   -5321.24936265 Ry
     hartree contribution      =    2707.21568001 Ry
     xc contribution           =    -133.80808668 Ry
     ewald contribution        =    2242.31240705 Ry
     DFT-D3 Dispersion         =      -0.15267325 Ry

     convergence has been achieved in   5 iterations

     negative rho (up, down):  1.914E-05 0.000E+00

     Forces acting on atoms (cartesian axes, Ry/au):

     atom    1 type  1   force =     0.00000099    0.00000250    0.00286747
     atom    2 type  1   force =     0.00000055   -0.00000069   -0.00661190
     atom    3 type  1   force =     0.00000026   -0.00000070    0.00291167
     atom    4 type  1   force =    -0.00000048    0.00000013   -0.00270213
     atom    5 type  1   force =    -0.00000052   -0.00000138    0.00701109
     atom    6 type  1   force =    -0.00000079    0.00000013   -0.00347620
     The non-local contrib.  to forces
     atom    1 type  1   force =    -0.00000047    0.00000403    0.00394028
     atom    2 type  1   force =     0.00000017    0.00000004    0.13606890
     atom    3 type  1   force =     0.00000022    0.00000054    0.01227827
     atom    4 type  1   force =    -0.00000071    0.00000061   -0.01210270
     atom    5 type  1   force =    -0.00000095   -0.00000008   -0.13603002
     atom    6 type  1   force =    -0.00000090    0.00000115   -0.00488703
     The ionic contribution  to forces
     atom    1 type  1   force =     0.00001845    0.00000290   75.89396957
     atom    2 type  1   force =    -0.00001000   -0.00000167  121.41805679
     atom    3 type  1   force =     0.00000071    0.00000010  -25.18200979
     atom    4 type  1   force =    -0.00000914   -0.00000133   25.15786027
     atom    5 type  1   force =     0.00000000    0.00000000 -121.40943553
     atom    6 type  1   force =    -0.00000003   -0.00000000  -75.87844132
     The local contribution  to forces
     atom    1 type  1   force =    -0.00001714   -0.00000364  -75.89071795
     atom    2 type  1   force =     0.00000987    0.00000121 -121.55273961
     atom    3 type  1   force =    -0.00000004   -0.00000026   25.17046255
     atom    4 type  1   force =     0.00000913    0.00000186  -25.14663242
     atom    5 type  1   force =     0.00000033    0.00000007  121.54478910
     atom    6 type  1   force =     0.00000023    0.00000043   75.87566727
     The core correction contribution to forces
     atom    1 type  1   force =     0.00000010   -0.00000008   -0.00077060
     atom    2 type  1   force =    -0.00000002    0.00000000   -0.00571151
     atom    3 type  1   force =     0.00000004   -0.00000001    0.00022213
     atom    4 type  1   force =     0.00000001   -0.00000001   -0.00023811
     atom    5 type  1   force =    -0.00000001    0.00000004    0.00564633
     atom    6 type  1   force =     0.00000004    0.00000002    0.00085184
     The Hubbard contrib.    to forces
     atom    1 type  1   force =     0.00000000    0.00000000    0.00000000
     atom    2 type  1   force =     0.00000000    0.00000000    0.00000000
     atom    3 type  1   force =     0.00000000    0.00000000    0.00000000
     atom    4 type  1   force =     0.00000000    0.00000000    0.00000000
     atom    5 type  1   force =     0.00000000    0.00000000    0.00000000
     atom    6 type  1   force =     0.00000000    0.00000000    0.00000000
     The SCF correction term to forces
     atom    1 type  1   force =     0.00000020    0.00000013   -0.00045690
     atom    2 type  1   force =     0.00000064    0.00000055   -0.00039134
     atom    3 type  1   force =    -0.00000000   -0.00000000    0.00000000
     atom    4 type  1   force =     0.00000000   -0.00000000    0.00000000
     atom    5 type  1   force =     0.00000000   -0.00000000    0.00000000
     atom    6 type  1   force =     0.00000000   -0.00000000    0.00000000

     DFT-D3 dispersion contribution to forces:
     atom    1 type  1   force =    -0.00000003   -0.00000000   -0.00315715
     atom    2 type  1   force =     0.00000001    0.00000000   -0.00195534
     atom    3 type  1   force =     0.00000000    0.00000000    0.00175537
     atom    4 type  1   force =     0.00000001    0.00000000   -0.00175492
     atom    5 type  1   force =    -0.00000000   -0.00000000    0.00192384
     atom    6 type  1   force =     0.00000000    0.00000000    0.00318818

     Total force =     0.007207     Total SCF correction =     0.000602


     Computing stress (Cartesian axis) and pressure


     negative rho (up, down):  1.914E-05 0.000E+00
          total   stress  (Ry/bohr**3)                   (kbar)     P=      -22.06
  -0.00018272  -0.00000000  -0.00000000          -26.88       -0.00       -0.00
  -0.00000000  -0.00018272  -0.00000000           -0.00      -26.88       -0.00
  -0.00000000  -0.00000000  -0.00008442           -0.00       -0.00      -12.42

     Energy error            =      5.6E-05 Ry
     Gradient error          =      6.6E-03 Ry/Bohr

     number of scf cycles    =   2
     number of bfgs steps    =   1

     energy             old  =    -505.6829319737 Ry
     energy             new  =    -505.6829875344 Ry

     CASE: energy            _new < energy            _old


     WARNING: bfgs curvature condition failed, Theta= 0.826
     new trust radius        =       0.0071818773 bohr
     new conv_thr            =       0.0000000100 Ry


ATOMIC_POSITIONS (angstrom)
Ag            2.4834774173        2.4834810591       16.6263598895
Ag            0.8278275089        0.8278269977       18.2710145341
Ag            2.4834810021        2.4834810021       13.3113080028    0   0   0
Ag            0.8278270007        0.8278270007       14.9669620042    0   0   0
Ag            2.4834810021        2.4834810021       10.0000000000    0   0   0
Ag            0.8278270007        0.8278270007       11.6556540014    0   0   0



     Writing config-only to output data dir ./Ag_100/Ag_100.save/
     NEW-OLD atomic charge density approx. for the potential

     negative rho (up, down):  1.922E-05 0.000E+00

     total cpu time spent up to now is       28.4 secs

     per-process dynamical memory:   184.3 Mb

     Self-consistent Calculation

     iteration #  1     ecut=    55.00 Ry     beta= 0.30
     Davidson diagonalization with overlap
     ethr =  1.00E-06,  avg # of iterations =  3.0

     Threshold (ethr) on eigenvalues was too large:
     Diagonalizing with lowered threshold

     Davidson diagonalization with overlap
     ethr =  2.79E-09,  avg # of iterations =  5.7

     negative rho (up, down):  1.919E-05 0.000E+00

     total cpu time spent up to now is       29.9 secs

     total energy              =    -505.68304098 Ry
     estimated scf accuracy    <       0.00000288 Ry

     iteration #  2     ecut=    55.00 Ry     beta= 0.30
     Davidson diagonalization with overlap
     ethr =  4.36E-09,  avg # of iterations =  2.0

     negative rho (up, down):  1.919E-05 0.000E+00

     total cpu time spent up to now is       30.4 secs

     total energy              =    -505.68304027 Ry
     estimated scf accuracy    <       0.00001983 Ry

     iteration #  3     ecut=    55.00 Ry     beta= 0.30
     Davidson diagonalization with overlap
     ethr =  4.36E-09,  avg # of iterations =  1.5

     negative rho (up, down):  1.919E-05 0.000E+00

     total cpu time spent up to now is       30.8 secs

     total energy              =    -505.68304141 Ry
     estimated scf accuracy    <       0.00000536 Ry

     iteration #  4     ecut=    55.00 Ry     beta= 0.30
     Davidson diagonalization with overlap
     ethr =  4.36E-09,  avg # of iterations =  1.0

     negative rho (up, down):  1.918E-05 0.000E+00

     total cpu time spent up to now is       31.2 secs

     total energy              =    -505.68304176 Ry
     estimated scf accuracy    <       0.00000057 Ry

     iteration #  5     ecut=    55.00 Ry     beta= 0.30
     Davidson diagonalization with overlap
     ethr =  8.67E-10,  avg # of iterations =  1.0

     negative rho (up, down):  1.917E-05 0.000E+00

     total cpu time spent up to now is       31.6 secs

     total energy              =    -505.68304181 Ry
     estimated scf accuracy    <       0.00000003 Ry

     iteration #  6     ecut=    55.00 Ry     beta= 0.30
     Davidson diagonalization with overlap
     ethr =  4.69E-11,  avg # of iterations =  3.2

     negative rho (up, down):  1.916E-05 0.000E+00

     total cpu time spent up to now is       32.1 secs

     End of self-consistent calculation

          k = 0.0000 0.0000 0.0000 ( 14575 PWs)   bands (ev):

    -5.5724  -4.5884  -4.4239  -4.3584  -3.9963  -3.9501  -3.4421  -3.3555
    -3.2954  -3.2361  -3.2361  -3.1582  -3.0562  -3.0562  -2.8539  -2.8130
    -2.7362  -2.7362  -2.3756  -2.3679  -2.2789  -2.2789  -2.1328  -1.9998
    -1.9166  -1.8216  -1.7811  -1.7811  -1.5380  -1.4649  -1.4649  -1.3914
    -1.3292   0.1546   2.1036   3.9350   5.2882   5.8416   5.8535   6.9151

          k = 0.0000 0.1250 0.0000 ( 14507 PWs)   bands (ev):

    -5.3432  -4.4565  -4.3310  -4.2530  -4.0015  -3.8346  -3.5177  -3.4883
    -3.3354  -3.3232  -3.2463  -3.1225  -3.0192  -2.9971  -2.8881  -2.6637
    -2.6309  -2.5726  -2.5682  -2.3130  -2.3106  -2.1210  -2.0732  -2.0672
    -2.0253  -1.8850  -1.8413  -1.6173  -1.6127  -1.6119  -1.4188  -1.3670
    -1.2520   0.3854   2.3710   4.2128   5.5251   6.0765   6.0815   7.1035

          k = 0.0000 0.2500 0.0000 ( 14429 PWs)   bands (ev):

    -4.7478  -4.3163  -4.1511  -4.1394  -3.9373  -3.6539  -3.6117  -3.5629
    -3.5560  -3.3691  -3.1831  -3.1128  -2.9410  -2.7532  -2.6403  -2.6092
    -2.5892  -2.3884  -2.3791  -2.3036  -2.2197  -2.2138  -2.1112  -1.9935
    -1.9850  -1.9329  -1.9057  -1.8938  -1.5866  -1.5329  -1.3182  -1.3161
    -0.9098   1.0261   3.0627   4.3857   4.9303   5.5496   6.2269   6.6642

          k = 0.0000 0.3750 0.0000 ( 14361 PWs)   bands (ev):

    -4.3984  -4.3956  -4.1084  -3.9929  -3.7481  -3.7418  -3.5442  -3.5234
    -3.4769  -3.3262  -3.2550  -2.9223  -2.7848  -2.7207  -2.6669  -2.6581
    -2.3899  -2.3173  -2.3135  -2.2537  -2.2016  -2.1048  -2.0813  -2.0489
    -1.9293  -1.9190  -1.5103  -1.4970  -1.4693  -1.2599  -1.2418  -1.1859
     0.0469   1.7523   2.0705   2.7800   4.1184   4.3226   6.5517   6.8642

          k = 0.0000-0.5000 0.0000 ( 14350 PWs)   bands (ev):

    -4.4513  -4.4489  -3.9823  -3.9785  -3.8151  -3.8134  -3.3655  -3.3569
    -3.3492  -3.3461  -3.1694  -3.1659  -2.7376  -2.7305  -2.5578  -2.5515
    -2.5137  -2.5063  -2.1902  -2.1882  -2.1246  -2.1218  -1.9912  -1.9897
    -1.9440  -1.9425  -1.4862  -1.4860  -1.2245  -1.2235  -0.2016  -0.1999
     0.5035   0.5068   1.6862   1.6890   3.8449   3.8542   6.7075   6.7121

          k = 0.1250-0.0000 0.0000 ( 14507 PWs)   bands (ev):

    -5.3432  -4.4565  -4.3310  -4.2530  -4.0015  -3.8346  -3.5177  -3.4883
    -3.3354  -3.3232  -3.2463  -3.1225  -3.0192  -2.9971  -2.8881  -2.6637
    -2.6309  -2.5726  -2.5682  -2.3130  -2.3106  -2.1210  -2.0732  -2.0672
    -2.0253  -1.8850  -1.8413  -1.6173  -1.6127  -1.6119  -1.4188  -1.3670
    -1.2520   0.3854   2.3710   4.2128   5.5251   6.0765   6.0815   7.1035

          k = 0.1250 0.1250 0.0000 ( 14465 PWs)   bands (ev):

    -5.1228  -4.3056  -4.2124  -4.1754  -3.8663  -3.8616  -3.5206  -3.4910
    -3.3760  -3.3555  -3.3177  -3.2319  -3.1838  -2.8592  -2.8362  -2.6339
    -2.5979  -2.5934  -2.5610  -2.2594  -2.2572  -2.1109  -2.0797  -2.0677
    -2.0593  -1.8805  -1.7691  -1.7392  -1.6477  -1.5113  -1.4686  -1.4339
    -1.0547   0.6558   2.6474   4.4884   5.7556   6.2997   6.3161   7.4650

          k = 0.1250 0.2500 0.0000 ( 14449 PWs)   bands (ev):

    -4.5683  -4.1468  -4.0234  -4.0159  -3.8898  -3.6665  -3.6287  -3.5145
    -3.5058  -3.3796  -3.2880  -3.2735  -3.1379  -2.8006  -2.7168  -2.5907
    -2.5710  -2.4636  -2.3939  -2.2843  -2.1941  -2.1631  -2.0852  -1.9726
    -1.9470  -1.9063  -1.8430  -1.8324  -1.5523  -1.5177  -1.4631  -1.4006
    -0.4580   1.3678   3.3678   4.7245   5.1998   5.8441   6.4368   6.8942

          k = 0.1250 0.3750 0.0000 ( 14401 PWs)   bands (ev):

    -4.2623  -4.2546  -4.0331  -3.8852  -3.7577  -3.7314  -3.6571  -3.5902
    -3.4695  -3.2985  -3.2655  -3.0294  -2.9321  -2.8151  -2.5812  -2.5601
    -2.4209  -2.3545  -2.2853  -2.2603  -2.1847  -2.0960  -2.0918  -1.9680
    -1.8865  -1.8694  -1.7303  -1.6188  -1.5036  -1.4477  -1.3094  -0.6805
     0.5828   2.1168   2.4398   3.1483   4.3811   4.5902   6.7224   7.0129

          k = 0.1250-0.5000 0.0000 ( 14406 PWs)   bands (ev):

    -4.3171  -4.3152  -3.9428  -3.9420  -3.7587  -3.7573  -3.6284  -3.6235
    -3.2964  -3.2891  -3.1905  -3.1866  -2.6899  -2.6836  -2.6353  -2.6310
    -2.3666  -2.3590  -2.2319  -2.2302  -2.1203  -2.1181  -1.9755  -1.9736
    -1.8234  -1.8222  -1.6192  -1.6179  -1.5398  -1.5390   0.0616   0.0623
     0.9249   0.9269   2.1715   2.1723   4.0931   4.1022   6.8463   6.8510

          k = 0.1250-0.3750 0.0000 ( 14401 PWs)   bands (ev):

    -4.2623  -4.2546  -4.0331  -3.8852  -3.7577  -3.7314  -3.6571  -3.5902
    -3.4695  -3.2985  -3.2655  -3.0294  -2.9321  -2.8151  -2.5812  -2.5601
    -2.4209  -2.3545  -2.2853  -2.2603  -2.1847  -2.0960  -2.0918  -1.9680
    -1.8865  -1.8694  -1.7303  -1.6188  -1.5036  -1.4477  -1.3094  -0.6805
     0.5828   2.1168   2.4398   3.1483   4.3811   4.5902   6.7224   7.0129

          k = 0.1250-0.2500 0.0000 ( 14449 PWs)   bands (ev):

    -4.5683  -4.1468  -4.0234  -4.0159  -3.8898  -3.6665  -3.6287  -3.5145
    -3.5058  -3.3796  -3.2880  -3.2735  -3.1379  -2.8006  -2.7168  -2.5907
    -2.5710  -2.4636  -2.3939  -2.2843  -2.1941  -2.1631  -2.0852  -1.9726
    -1.9470  -1.9063  -1.8430  -1.8324  -1.5523  -1.5177  -1.4631  -1.4006
    -0.4580   1.3678   3.3678   4.7245   5.1998   5.8441   6.4368   6.8942

          k = 0.1250-0.1250 0.0000 ( 14465 PWs)   bands (ev):

    -5.1228  -4.3056  -4.2124  -4.1754  -3.8663  -3.8616  -3.5206  -3.4910
    -3.3760  -3.3555  -3.3177  -3.2319  -3.1838  -2.8592  -2.8362  -2.6339
    -2.5979  -2.5934  -2.5610  -2.2594  -2.2572  -2.1109  -2.0797  -2.0677
    -2.0593  -1.8805  -1.7691  -1.7392  -1.6477  -1.5113  -1.4686  -1.4339
    -1.0547   0.6558   2.6474   4.4884   5.7556   6.2997   6.3161   7.4649

          k = 0.2500-0.0000 0.0000 ( 14429 PWs)   bands (ev):

    -4.7478  -4.3163  -4.1511  -4.1394  -3.9373  -3.6539  -3.6117  -3.5629
    -3.5560  -3.3691  -3.1831  -3.1128  -2.9410  -2.7532  -2.6403  -2.6092
    -2.5892  -2.3884  -2.3791  -2.3036  -2.2197  -2.2138  -2.1112  -1.9935
    -1.9850  -1.9329  -1.9057  -1.8938  -1.5866  -1.5329  -1.3182  -1.3161
    -0.9098   1.0261   3.0627   4.3857   4.9303   5.5496   6.2269   6.6642

          k = 0.2500 0.1250 0.0000 ( 14449 PWs)   bands (ev):

    -4.5683  -4.1468  -4.0234  -4.0159  -3.8898  -3.6665  -3.6287  -3.5145
    -3.5058  -3.3796  -3.2880  -3.2735  -3.1379  -2.8006  -2.7168  -2.5907
    -2.5710  -2.4636  -2.3939  -2.2843  -2.1941  -2.1631  -2.0852  -1.9726
    -1.9470  -1.9063  -1.8430  -1.8324  -1.5523  -1.5177  -1.4631  -1.4006
    -0.4580   1.3678   3.3678   4.7245   5.1998   5.8441   6.4368   6.8942

          k = 0.2500 0.2500 0.0000 ( 14420 PWs)   bands (ev):

    -4.2299  -3.9106  -3.9050  -3.8854  -3.6643  -3.6244  -3.6220  -3.4476
    -3.4461  -3.4333  -3.4121  -3.4086  -3.3470  -2.9290  -2.7120  -2.6726
    -2.5034  -2.3877  -2.3687  -2.1672  -2.1083  -2.0687  -2.0349  -2.0298
    -1.9375  -1.9351  -1.8636  -1.7342  -1.6588  -1.5853  -1.3668  -0.8920
     0.4168   2.2049   4.1544   5.1668   5.9378   6.1191   6.4347   6.8756

          k = 0.2500 0.3750 0.0000 ( 14394 PWs)   bands (ev):

    -4.1248  -4.0074  -3.9856  -3.8895  -3.8616  -3.7587  -3.6042  -3.5145
    -3.4595  -3.3995  -3.2400  -3.1050  -3.0056  -2.8521  -2.6524  -2.5965
    -2.4278  -2.3367  -2.1611  -2.1563  -2.0857  -2.0462  -2.0420  -1.9669
    -1.8808  -1.8698  -1.8306  -1.7582  -1.6433  -1.4092  -0.9107   0.1757
     1.6002   2.8742   3.3791   4.0086   5.1651   5.3718   7.0568   7.4152

          k = 0.2500-0.5000 0.0000 ( 14414 PWs)   bands (ev):

    -4.0983  -4.0939  -3.9947  -3.9937  -3.8779  -3.8757  -3.6145  -3.6104
    -3.4476  -3.4372  -3.1095  -3.1049  -2.7306  -2.7264  -2.5115  -2.5094
    -2.4158  -2.4074  -2.1398  -2.1396  -2.0484  -2.0441  -1.9932  -1.9888
    -1.7863  -1.7858  -1.7755  -1.7740  -1.5931  -1.5911   0.6982   0.6983
     1.8038   1.8049   3.2440   3.2441   4.8531   4.8602   7.2858   7.2906

          k = 0.2500-0.3750 0.0000 ( 14394 PWs)   bands (ev):

    -4.1248  -4.0074  -3.9856  -3.8895  -3.8616  -3.7587  -3.6042  -3.5145
    -3.4595  -3.3995  -3.2400  -3.1050  -3.0056  -2.8521  -2.6524  -2.5965
    -2.4278  -2.3367  -2.1611  -2.1563  -2.0857  -2.0462  -2.0420  -1.9669
    -1.8808  -1.8698  -1.8306  -1.7582  -1.6433  -1.4092  -0.9107   0.1757
     1.6002   2.8742   3.3791   4.0086   5.1651   5.3718   7.0568   7.3398

          k = 0.2500-0.2500 0.0000 ( 14420 PWs)   bands (ev):

    -4.2299  -3.9106  -3.9050  -3.8854  -3.6643  -3.6244  -3.6220  -3.4476
    -3.4461  -3.4333  -3.4121  -3.4086  -3.3470  -2.9290  -2.7120  -2.6726
    -2.5034  -2.3877  -2.3687  -2.1672  -2.1083  -2.0687  -2.0349  -2.0298
    -1.9375  -1.9351  -1.8636  -1.7342  -1.6588  -1.5853  -1.3668  -0.8920
     0.4168   2.2049   4.1544   5.1668   5.9378   6.1191   6.4347   6.8756

          k = 0.2500-0.1250 0.0000 ( 14449 PWs)   bands (ev):

    -4.5683  -4.1468  -4.0234  -4.0159  -3.8898  -3.6665  -3.6287  -3.5145
    -3.5058  -3.3796  -3.2880  -3.2735  -3.1379  -2.8006  -2.7168  -2.5907
    -2.5710  -2.4636  -2.3939  -2.2843  -2.1941  -2.1631  -2.0852  -1.9726
    -1.9470  -1.9063  -1.8430  -1.8324  -1.5523  -1.5177  -1.4631  -1.4006
    -0.4580   1.3678   3.3678   4.7245   5.1998   5.8441   6.4368   6.8942

          k = 0.3750-0.0000 0.0000 ( 14361 PWs)   bands (ev):

    -4.3984  -4.3956  -4.1084  -3.9929  -3.7481  -3.7418  -3.5442  -3.5234
    -3.4769  -3.3262  -3.2550  -2.9223  -2.7848  -2.7207  -2.6669  -2.6581
    -2.3899  -2.3173  -2.3135  -2.2537  -2.2016  -2.1048  -2.0813  -2.0489
    -1.9293  -1.9190  -1.5103  -1.4970  -1.4693  -1.2599  -1.2418  -1.1859
     0.0469   1.7523   2.0705   2.7800   4.1184   4.3226   6.5517   6.8642

          k = 0.3750 0.1250 0.0000 ( 14401 PWs)   bands (ev):

    -4.2623  -4.2546  -4.0331  -3.8852  -3.7577  -3.7314  -3.6571  -3.5902
    -3.4695  -3.2985  -3.2655  -3.0294  -2.9321  -2.8151  -2.5812  -2.5601
    -2.4209  -2.3545  -2.2853  -2.2603  -2.1847  -2.0960  -2.0918  -1.9680
    -1.8865  -1.8694  -1.7303  -1.6188  -1.5036  -1.4477  -1.3094  -0.6805
     0.5828   2.1168   2.4398   3.1483   4.3811   4.5902   6.7224   7.0129

          k = 0.3750 0.2500 0.0000 ( 14394 PWs)   bands (ev):

    -4.1248  -4.0074  -3.9856  -3.8895  -3.8616  -3.7587  -3.6042  -3.5145
    -3.4595  -3.3995  -3.2400  -3.1050  -3.0056  -2.8521  -2.6524  -2.5965
    -2.4278  -2.3367  -2.1611  -2.1563  -2.0857  -2.0462  -2.0420  -1.9669
    -1.8808  -1.8698  -1.8306  -1.7582  -1.6433  -1.4092  -0.9107   0.1757
     1.6002   2.8742   3.3791   4.0086   5.1651   5.3718   7.0568   7.3410

          k = 0.3750 0.3750 0.0000 ( 14360 PWs)   bands (ev):

    -4.2693  -4.1929  -3.9799  -3.9043  -3.8683  -3.7339  -3.6555  -3.6339
    -3.4596  -3.4149  -3.0758  -3.0598  -2.9474  -2.9081  -2.7383  -2.4714
    -2.2005  -2.1165  -2.0526  -2.0361  -1.9997  -1.9707  -1.9378  -1.9376
    -1.9186  -1.8740  -1.8090  -1.6743  -1.6425  -1.3378   0.0166   1.3308
     2.8650   3.1194   4.5572   4.5828   5.5022   5.9308   6.4301   6.4495

          k = 0.3750-0.5000 0.0000 ( 14356 PWs)   bands (ev):

    -4.3086  -4.3047  -3.9707  -3.9696  -3.8193  -3.8190  -3.7203  -3.7150
    -3.4693  -3.4634  -3.0957  -3.0893  -2.8896  -2.8874  -2.4026  -2.4021
    -2.1388  -2.1352  -1.9955  -1.9948  -1.9479  -1.9435  -1.9210  -1.9204
    -1.8455  -1.8445  -1.7267  -1.7228  -1.4497  -1.4492   1.5626   1.5628
     2.9075   2.9080   4.4956   4.4974   6.0682   6.0710   6.4901   6.4940

          k = 0.3750-0.3750 0.0000 ( 14360 PWs)   bands (ev):

    -4.2693  -4.1929  -3.9799  -3.9043  -3.8683  -3.7339  -3.6555  -3.6339
    -3.4596  -3.4149  -3.0758  -3.0598  -2.9474  -2.9081  -2.7383  -2.4714
    -2.2005  -2.1165  -2.0526  -2.0361  -1.9997  -1.9707  -1.9378  -1.9376
    -1.9186  -1.8740  -1.8090  -1.6743  -1.6425  -1.3378   0.0166   1.3308
     2.8650   3.1194   4.5572   4.5828   5.5022   5.9308   6.4301   6.4495

          k = 0.3750-0.2500 0.0000 ( 14394 PWs)   bands (ev):

    -4.1248  -4.0074  -3.9856  -3.8895  -3.8616  -3.7587  -3.6042  -3.5145
    -3.4595  -3.3995  -3.2400  -3.1050  -3.0056  -2.8521  -2.6524  -2.5965
    -2.4278  -2.3367  -2.1611  -2.1563  -2.0857  -2.0462  -2.0420  -1.9669
    -1.8808  -1.8698  -1.8306  -1.7582  -1.6433  -1.4092  -0.9107   0.1757
     1.6002   2.8742   3.3791   4.0086   5.1651   5.3718   7.0568   7.3398

          k = 0.3750-0.1250 0.0000 ( 14401 PWs)   bands (ev):

    -4.2623  -4.2546  -4.0331  -3.8852  -3.7577  -3.7314  -3.6571  -3.5902
    -3.4695  -3.2985  -3.2655  -3.0294  -2.9321  -2.8151  -2.5812  -2.5601
    -2.4209  -2.3545  -2.2853  -2.2603  -2.1847  -2.0960  -2.0918  -1.9680
    -1.8865  -1.8694  -1.7303  -1.6188  -1.5036  -1.4477  -1.3094  -0.6805
     0.5828   2.1168   2.4398   3.1483   4.3811   4.5902   6.7224   7.0129

          k =-0.5000 0.0000 0.0000 ( 14350 PWs)   bands (ev):

    -4.4513  -4.4489  -3.9823  -3.9785  -3.8151  -3.8134  -3.3655  -3.3569
    -3.3492  -3.3461  -3.1694  -3.1659  -2.7376  -2.7305  -2.5578  -2.5515
    -2.5137  -2.5063  -2.1902  -2.1882  -2.1246  -2.1218  -1.9912  -1.9897
    -1.9440  -1.9425  -1.4862  -1.4860  -1.2245  -1.2235  -0.2016  -0.1999
     0.5035   0.5068   1.6862   1.6890   3.8449   3.8542   6.7075   6.7121

          k =-0.5000 0.1250 0.0000 ( 14406 PWs)   bands (ev):

    -4.3171  -4.3152  -3.9428  -3.9420  -3.7587  -3.7573  -3.6284  -3.6235
    -3.2964  -3.2891  -3.1905  -3.1866  -2.6899  -2.6836  -2.6353  -2.6310
    -2.3666  -2.3590  -2.2319  -2.2302  -2.1203  -2.1181  -1.9755  -1.9736
    -1.8234  -1.8222  -1.6192  -1.6179  -1.5398  -1.5390   0.0616   0.0623
     0.9249   0.9269   2.1715   2.1723   4.0931   4.1022   6.8463   6.8510

          k =-0.5000 0.2500 0.0000 ( 14414 PWs)   bands (ev):

    -4.0983  -4.0939  -3.9947  -3.9937  -3.8779  -3.8757  -3.6145  -3.6104
    -3.4476  -3.4372  -3.1095  -3.1049  -2.7306  -2.7264  -2.5115  -2.5094
    -2.4158  -2.4074  -2.1398  -2.1396  -2.0484  -2.0441  -1.9932  -1.9888
    -1.7863  -1.7858  -1.7755  -1.7740  -1.5931  -1.5911   0.6982   0.6983
     1.8038   1.8049   3.2440   3.2441   4.8531   4.8602   7.2858   7.2906

          k =-0.5000 0.3750 0.0000 ( 14356 PWs)   bands (ev):

    -4.3086  -4.3047  -3.9707  -3.9696  -3.8193  -3.8190  -3.7203  -3.7150
    -3.4693  -3.4634  -3.0957  -3.0893  -2.8896  -2.8874  -2.4026  -2.4021
    -2.1388  -2.1352  -1.9955  -1.9948  -1.9479  -1.9435  -1.9210  -1.9204
    -1.8455  -1.8445  -1.7267  -1.7228  -1.4497  -1.4492   1.5626   1.5628
     2.9075   2.9080   4.4956   4.4974   6.0682   6.0710   6.4901   6.4940

          k =-0.5000-0.5000 0.0000 ( 14372 PWs)   bands (ev):

    -4.3979  -4.3944  -3.9505  -3.9505  -3.8720  -3.8675  -3.7779  -3.7779
    -3.4367  -3.4367  -3.2154  -3.2080  -2.8822  -2.8822  -2.1363  -2.1363
    -2.0721  -2.0710  -1.9739  -1.9734  -1.9386  -1.9348  -1.9213  -1.9176
    -1.8450  -1.8421  -1.5859  -1.5804  -1.4261  -1.4261   2.1651   2.1651
     3.7873   3.7873   5.3135   5.3155   5.6517   5.6532   5.8070   5.8070

     the Fermi energy is     1.5057 ev

!    total energy              =    -505.68304183 Ry
     estimated scf accuracy    <          7.0E-09 Ry
     smearing contrib. (-TS)   =      -0.00096783 Ry
     internal energy E=F+TS    =    -505.68207400 Ry

     The total energy is F=E-TS. E is the sum of the following terms:
     one-electron contribution =   -5322.45314768 Ry
     hartree contribution      =    2707.81799097 Ry
     xc contribution           =    -133.80889798 Ry
     ewald contribution        =    2242.91465695 Ry
     DFT-D3 Dispersion         =      -0.15267626 Ry

     convergence has been achieved in   6 iterations

     negative rho (up, down):  1.916E-05 0.000E+00

     Forces acting on atoms (cartesian axes, Ry/au):

     atom    1 type  1   force =     0.00000106    0.00000018    0.00236722
     atom    2 type  1   force =    -0.00000037    0.00000019   -0.00600800
     atom    3 type  1   force =    -0.00000009   -0.00000014    0.00287285
     atom    4 type  1   force =    -0.00000031    0.00000002   -0.00262414
     atom    5 type  1   force =    -0.00000005   -0.00000009    0.00690774
     atom    6 type  1   force =    -0.00000024   -0.00000015   -0.00351568
     The non-local contrib.  to forces
     atom    1 type  1   force =     0.00000083    0.00000056    0.00322208
     atom    2 type  1   force =    -0.00000044    0.00000015    0.13637110
     atom    3 type  1   force =     0.00000008   -0.00000006    0.01231219
     atom    4 type  1   force =    -0.00000044    0.00000014   -0.01179448
     atom    5 type  1   force =    -0.00000009    0.00000001   -0.13606610
     atom    6 type  1   force =    -0.00000010   -0.00000002   -0.00489707
     The ionic contribution  to forces
     atom    1 type  1   force =     0.00002905   -0.00000044   75.91601235
     atom    2 type  1   force =    -0.00001605    0.00000024  121.43286545
     atom    3 type  1   force =     0.00000109   -0.00000002  -25.18604954
     atom    4 type  1   force =    -0.00001405    0.00000022   25.13563720
     atom    5 type  1   force =     0.00000000   -0.00000000 -121.41470518
     atom    6 type  1   force =    -0.00000004    0.00000000  -75.88376028
     The local contribution  to forces
     atom    1 type  1   force =    -0.00002912    0.00000009  -75.91306404
     atom    2 type  1   force =     0.00001689   -0.00000024 -121.56748730
     atom    3 type  1   force =    -0.00000137    0.00000002   25.17463756
     atom    4 type  1   force =     0.00001415   -0.00000014  -25.12446959
     atom    5 type  1   force =     0.00000007   -0.00000010  121.55014442
     atom    6 type  1   force =     0.00000003   -0.00000002   75.88107053
     The core correction contribution to forces
     atom    1 type  1   force =    -0.00000007   -0.00000002   -0.00069145
     atom    2 type  1   force =     0.00000009   -0.00000000   -0.00578601
     atom    3 type  1   force =    -0.00000001    0.00000000    0.00021972
     atom    4 type  1   force =     0.00000003   -0.00000000   -0.00024369
     atom    5 type  1   force =    -0.00000000   -0.00000000    0.00564778
     atom    6 type  1   force =    -0.00000000   -0.00000001    0.00085062
     The Hubbard contrib.    to forces
     atom    1 type  1   force =     0.00000000    0.00000000    0.00000000
     atom    2 type  1   force =     0.00000000    0.00000000    0.00000000
     atom    3 type  1   force =     0.00000000    0.00000000    0.00000000
     atom    4 type  1   force =     0.00000000    0.00000000    0.00000000
     atom    5 type  1   force =     0.00000000    0.00000000    0.00000000
     atom    6 type  1   force =     0.00000000    0.00000000    0.00000000
     The SCF correction term to forces
     atom    1 type  1   force =     0.00000050    0.00000009    0.00000858
     atom    2 type  1   force =    -0.00000079    0.00000015    0.00001496
     atom    3 type  1   force =     0.00000000    0.00000000   -0.00000000
     atom    4 type  1   force =     0.00000000   -0.00000000    0.00000000
     atom    5 type  1   force =     0.00000000    0.00000000   -0.00000000
     atom    6 type  1   force =    -0.00000000    0.00000000    0.00000000

     DFT-D3 dispersion contribution to forces:
     atom    1 type  1   force =    -0.00000005    0.00000000   -0.00312316
     atom    2 type  1   force =     0.00000002   -0.00000000   -0.00198905
     atom    3 type  1   force =     0.00000000   -0.00000000    0.00175887
     atom    4 type  1   force =     0.00000002   -0.00000000   -0.00175674
     atom    5 type  1   force =    -0.00000000    0.00000000    0.00192351
     atom    6 type  1   force =     0.00000000   -0.00000000    0.00318658

     Total force =     0.006458     Total SCF correction =     0.000017


     Computing stress (Cartesian axis) and pressure


     negative rho (up, down):  1.916E-05 0.000E+00
          total   stress  (Ry/bohr**3)                   (kbar)     P=      -21.89
  -0.00018153  -0.00000000   0.00000000          -26.70       -0.00        0.00
  -0.00000000  -0.00018153  -0.00000000           -0.00      -26.70       -0.00
   0.00000000  -0.00000000  -0.00008330            0.00       -0.00      -12.25

     Energy error            =      5.4E-05 Ry
     Gradient error          =      6.0E-03 Ry/Bohr

     number of scf cycles    =   3
     number of bfgs steps    =   2

     energy             old  =    -505.6829875344 Ry
     energy             new  =    -505.6830418272 Ry

     CASE: energy            _new < energy            _old

     new trust radius        =       0.0107728160 bohr
     new conv_thr            =       0.0000000100 Ry


ATOMIC_POSITIONS (angstrom)
Ag            2.4834755963        2.4834797731       16.6289844662
[...]
    -3.3697  -3.3100  -3.2408  -3.2139  -2.7311  -2.6951  -2.6930  -2.6419
    -2.4121  -2.3638  -2.2385  -2.2348  -2.1294  -2.1100  -1.9955  -1.9798
    -1.8415  -1.8277  -1.6265  -1.6142  -1.5455  -1.5400   0.0311   0.0399
     0.9004   0.9038   2.1744   2.1751   4.0989   4.1582   6.8936   6.9408

          k = 0.1250-0.3750 0.0000 ( 14401 PWs)   bands (ev):

    -4.3119  -4.3085  -4.0885  -3.9302  -3.8102  -3.7892  -3.7052  -3.6432
    -3.5117  -3.3579  -3.3089  -3.0607  -2.9738  -2.8396  -2.6152  -2.5964
    -2.4391  -2.3603  -2.3104  -2.2772  -2.1916  -2.1047  -2.0869  -1.9839
    -1.9091  -1.8590  -1.7377  -1.6263  -1.5116  -1.4448  -1.3172  -0.6992
     0.5896   2.1013   2.4527   3.1250   4.4172   4.6082   6.7774   7.0646

          k = 0.1250-0.2500 0.0000 ( 14449 PWs)   bands (ev):

    -4.6245  -4.2072  -4.0979  -4.0288  -3.9373  -3.7293  -3.6772  -3.5914
    -3.5230  -3.4254  -3.3310  -3.3210  -3.1803  -2.8319  -2.7389  -2.6192
    -2.5919  -2.4943  -2.4112  -2.3104  -2.2013  -2.1830  -2.0966  -1.9908
    -1.9551  -1.9116  -1.8491  -1.8232  -1.5537  -1.5185  -1.4654  -1.3995
    -0.4499   1.4037   3.4136   4.6959   5.2580   5.8252   6.4543   6.9062

          k = 0.1250-0.1250 0.0000 ( 14465 PWs)   bands (ev):

    -5.1793  -4.3724  -4.2653  -4.2138  -3.9189  -3.9066  -3.5760  -3.5273
    -3.4230  -3.3967  -3.3332  -3.3035  -3.2111  -2.8973  -2.8532  -2.6747
    -2.6284  -2.6073  -2.5877  -2.2875  -2.2570  -2.1404  -2.1077  -2.0867
    -2.0583  -1.8942  -1.7627  -1.7566  -1.6446  -1.5101  -1.4581  -1.4437
    -1.0427   0.6949   2.6974   4.5624   5.7778   6.3128   6.3398   7.4410

          k = 0.2500-0.0000 0.0000 ( 14429 PWs)   bands (ev):

    -4.8035  -4.3761  -4.2263  -4.1496  -3.9872  -3.7526  -3.6239  -3.6172
    -3.6027  -3.4113  -3.2475  -3.1588  -2.9677  -2.7683  -2.6773  -2.6430
    -2.6177  -2.4121  -2.3906  -2.3115  -2.2350  -2.2234  -2.1401  -1.9997
    -1.9978  -1.9476  -1.9129  -1.8853  -1.5809  -1.5383  -1.3207  -1.3099
    -0.9016   1.0615   3.1064   4.3573   4.9865   5.5305   6.2438   6.6754

          k = 0.2500 0.1250 0.0000 ( 14449 PWs)   bands (ev):

    -4.6245  -4.2072  -4.0979  -4.0288  -3.9373  -3.7293  -3.6772  -3.5914
    -3.5230  -3.4254  -3.3310  -3.3210  -3.1803  -2.8319  -2.7389  -2.6192
    -2.5919  -2.4943  -2.4112  -2.3104  -2.2013  -2.1830  -2.0966  -1.9908
    -1.9551  -1.9116  -1.8491  -1.8232  -1.5537  -1.5185  -1.4654  -1.3995
    -0.4499   1.4037   3.4136   4.6959   5.2580   5.8252   6.4543   6.9062

          k = 0.2500 0.2500 0.0000 ( 14420 PWs)   bands (ev):

    -4.2855  -3.9723  -3.9554  -3.9299  -3.7006  -3.6749  -3.6305  -3.5480
    -3.4982  -3.4795  -3.4579  -3.4337  -3.3799  -2.9586  -2.7433  -2.6869
    -2.5356  -2.4370  -2.3736  -2.2101  -2.1277  -2.0790  -2.0559  -2.0464
    -1.9443  -1.9391  -1.8532  -1.7182  -1.6713  -1.5769  -1.3755  -0.9077
     0.4307   2.2430   4.2031   5.1341   5.9937   6.1030   6.4133   6.8638

          k = 0.2500 0.3750 0.0000 ( 14394 PWs)   bands (ev):

    -4.1761  -4.0549  -4.0358  -3.9371  -3.9004  -3.7930  -3.6442  -3.5645
    -3.5340  -3.4232  -3.2739  -3.1406  -3.0524  -2.8895  -2.6684  -2.6144
    -2.4703  -2.3645  -2.1941  -2.1772  -2.1013  -2.0617  -2.0506  -1.9743
    -1.9074  -1.8796  -1.8372  -1.7489  -1.6546  -1.4182  -0.9290   0.1594
     1.6168   2.8482   3.4132   3.9888   5.2076   5.3876   7.0597   7.3746

          k = 0.2500-0.5000 0.0000 ( 14414 PWs)   bands (ev):

    -4.1547  -4.1330  -4.0489  -4.0174  -3.9636  -3.8855  -3.6600  -3.6492
    -3.5389  -3.4446  -3.1581  -3.1170  -2.7975  -2.7346  -2.5267  -2.5227
    -2.4826  -2.4159  -2.1676  -2.1442  -2.0655  -2.0501  -2.0422  -1.9902
    -1.8074  -1.7966  -1.7917  -1.7741  -1.6050  -1.5996   0.6696   0.6733
     1.7853   1.7858   3.2555   3.2598   4.8660   4.9146   7.3306   7.3790

          k = 0.2500-0.3750 0.0000 ( 14394 PWs)   bands (ev):

    -4.1761  -4.0549  -4.0358  -3.9371  -3.9004  -3.7930  -3.6442  -3.5645
    -3.5340  -3.4232  -3.2739  -3.1406  -3.0524  -2.8895  -2.6684  -2.6144
    -2.4703  -2.3645  -2.1941  -2.1772  -2.1013  -2.0617  -2.0506  -1.9743
    -1.9074  -1.8796  -1.8372  -1.7489  -1.6546  -1.4182  -0.9290   0.1594
     1.6168   2.8482   3.4132   3.9888   5.2076   5.3876   7.0597   7.3747

          k = 0.2500-0.2500 0.0000 ( 14420 PWs)   bands (ev):

    -4.2855  -3.9723  -3.9554  -3.9299  -3.7006  -3.6749  -3.6305  -3.5480
    -3.4982  -3.4795  -3.4579  -3.4337  -3.3799  -2.9586  -2.7433  -2.6869
    -2.5356  -2.4370  -2.3736  -2.2101  -2.1277  -2.0790  -2.0559  -2.0464
    -1.9443  -1.9391  -1.8532  -1.7182  -1.6713  -1.5769  -1.3755  -0.9077
     0.4307   2.2430   4.2031   5.1341   5.9937   6.1030   6.4133   6.8638

          k = 0.2500-0.1250 0.0000 ( 14449 PWs)   bands (ev):

    -4.6245  -4.2072  -4.0979  -4.0288  -3.9373  -3.7293  -3.6772  -3.5914
    -3.5230  -3.4254  -3.3310  -3.3210  -3.1803  -2.8319  -2.7389  -2.6192
    -2.5919  -2.4943  -2.4112  -2.3104  -2.2013  -2.1830  -2.0966  -1.9908
    -1.9551  -1.9116  -1.8491  -1.8232  -1.5537  -1.5185  -1.4654  -1.3995
    -0.4499   1.4037   3.4136   4.6959   5.2580   5.8252   6.4543   6.9062

          k = 0.3750-0.0000 0.0000 ( 14361 PWs)   bands (ev):

    -4.4568  -4.4417  -4.1717  -4.0332  -3.8080  -3.7909  -3.6053  -3.5899
    -3.4960  -3.3882  -3.3115  -2.9610  -2.8267  -2.7655  -2.6820  -2.6767
    -2.4069  -2.3461  -2.3197  -2.2561  -2.1979  -2.1243  -2.0778  -2.0652
    -1.9407  -1.9166  -1.5084  -1.4893  -1.4877  -1.2584  -1.2355  -1.2124
     0.0451   1.7480   2.0653   2.7547   4.1511   4.3408   6.6063   6.9151

          k = 0.3750 0.1250 0.0000 ( 14401 PWs)   bands (ev):

    -4.3119  -4.3085  -4.0885  -3.9302  -3.8102  -3.7892  -3.7052  -3.6432
    -3.5117  -3.3579  -3.3089  -3.0607  -2.9738  -2.8396  -2.6152  -2.5964
    -2.4391  -2.3603  -2.3104  -2.2772  -2.1916  -2.1047  -2.0869  -1.9839
    -1.9091  -1.8590  -1.7377  -1.6263  -1.5116  -1.4448  -1.3172  -0.6992
     0.5896   2.1013   2.4527   3.1250   4.4172   4.6082   6.7774   7.0646

          k = 0.3750 0.2500 0.0000 ( 14394 PWs)   bands (ev):

    -4.1761  -4.0549  -4.0358  -3.9371  -3.9004  -3.7930  -3.6442  -3.5645
    -3.5340  -3.4232  -3.2739  -3.1406  -3.0524  -2.8895  -2.6684  -2.6144
    -2.4703  -2.3645  -2.1941  -2.1772  -2.1013  -2.0617  -2.0506  -1.9743
    -1.9074  -1.8796  -1.8372  -1.7489  -1.6546  -1.4182  -0.9290   0.1594
     1.6168   2.8482   3.4132   3.9888   5.2076   5.3876   7.0597   7.3748

          k = 0.3750 0.3750 0.0000 ( 14360 PWs)   bands (ev):

    -4.3201  -4.2373  -4.0247  -3.9411  -3.8897  -3.7650  -3.7249  -3.6459
    -3.5010  -3.4517  -3.1269  -3.1105  -2.9677  -2.9316  -2.7699  -2.5139
    -2.2330  -2.1573  -2.1041  -2.0436  -2.0163  -1.9944  -1.9580  -1.9521
    -1.9320  -1.8761  -1.8293  -1.6761  -1.6584  -1.3483  -0.0111   1.3145
     2.8862   3.0836   4.5329   4.6242   5.4925   5.9481   6.4567   6.4718

          k = 0.3750-0.5000 0.0000 ( 14356 PWs)   bands (ev):

    -4.3653  -4.3428  -4.0178  -3.9872  -3.8614  -3.8390  -3.7795  -3.7249
    -3.5383  -3.4811  -3.1508  -3.0966  -2.9370  -2.9171  -2.4351  -2.4338
    -2.1935  -2.1586  -2.0262  -2.0164  -2.0018  -1.9476  -1.9321  -1.9309
    -1.8656  -1.8499  -1.7651  -1.7263  -1.4636  -1.4594   1.5287   1.5317
     2.8882   2.8897   4.5118   4.5219   6.0916   6.1079   6.4735   6.4930

          k = 0.3750-0.3750 0.0000 ( 14360 PWs)   bands (ev):

    -4.3201  -4.2373  -4.0247  -3.9411  -3.8897  -3.7650  -3.7249  -3.6459
    -3.5010  -3.4517  -3.1269  -3.1105  -2.9677  -2.9316  -2.7699  -2.5139
    -2.2330  -2.1573  -2.1041  -2.0436  -2.0163  -1.9944  -1.9580  -1.9521
    -1.9320  -1.8761  -1.8293  -1.6761  -1.6584  -1.3483  -0.0111   1.3145
     2.8862   3.0836   4.5329   4.6242   5.4925   5.9481   6.4567   6.4718

          k = 0.3750-0.2500 0.0000 ( 14394 PWs)   bands (ev):

    -4.1761  -4.0549  -4.0358  -3.9371  -3.9004  -3.7930  -3.6442  -3.5645
    -3.5340  -3.4232  -3.2739  -3.1406  -3.0524  -2.8895  -2.6684  -2.6144
    -2.4703  -2.3645  -2.1941  -2.1772  -2.1013  -2.0617  -2.0506  -1.9743
    -1.9074  -1.8796  -1.8372  -1.7489  -1.6546  -1.4182  -0.9290   0.1594
     1.6168   2.8482   3.4132   3.9888   5.2076   5.3876   7.0597   7.3747

          k = 0.3750-0.1250 0.0000 ( 14401 PWs)   bands (ev):

    -4.3119  -4.3085  -4.0885  -3.9302  -3.8102  -3.7892  -3.7052  -3.6432
    -3.5117  -3.3579  -3.3089  -3.0607  -2.9738  -2.8396  -2.6152  -2.5964
    -2.4391  -2.3603  -2.3104  -2.2772  -2.1916  -2.1047  -2.0869  -1.9839
    -1.9091  -1.8590  -1.7377  -1.6263  -1.5116  -1.4448  -1.3172  -0.6992
     0.5896   2.1013   2.4527   3.1250   4.4172   4.6082   6.7774   7.0646

          k =-0.5000 0.0000 0.0000 ( 14350 PWs)   bands (ev):

    -4.5102  -4.4958  -4.0537  -4.0161  -3.8759  -3.8646  -3.4396  -3.4199
    -3.3945  -3.3697  -3.2207  -3.2007  -2.7969  -2.7453  -2.5796  -2.5747
    -2.5387  -2.5047  -2.2197  -2.1877  -2.1272  -2.1064  -2.0057  -2.0018
    -1.9627  -1.9458  -1.4805  -1.4760  -1.2222  -1.2152  -0.2370  -0.2215
     0.4706   0.4830   1.6753   1.6900   3.8492   3.9080   6.7552   6.8019

          k =-0.5000 0.1250 0.0000 ( 14406 PWs)   bands (ev):

    -4.3726  -4.3630  -4.0031  -3.9765  -3.8326  -3.8117  -3.6932  -3.6469
    -3.3697  -3.3100  -3.2408  -3.2139  -2.7311  -2.6951  -2.6930  -2.6419
    -2.4121  -2.3638  -2.2385  -2.2348  -2.1294  -2.1100  -1.9955  -1.9798
    -1.8415  -1.8277  -1.6265  -1.6142  -1.5455  -1.5400   0.0311   0.0399
     0.9004   0.9038   2.1744   2.1751   4.0989   4.1582   6.8936   6.9408

          k =-0.5000 0.2500 0.0000 ( 14414 PWs)   bands (ev):

    -4.1547  -4.1330  -4.0489  -4.0174  -3.9636  -3.8855  -3.6600  -3.6492
    -3.5389  -3.4446  -3.1581  -3.1170  -2.7975  -2.7346  -2.5267  -2.5227
    -2.4826  -2.4159  -2.1676  -2.1442  -2.0655  -2.0501  -2.0422  -1.9902
    -1.8074  -1.7966  -1.7917  -1.7741  -1.6050  -1.5996   0.6696   0.6733
     1.7853   1.7858   3.2555   3.2598   4.8660   4.9146   7.3306   7.3790

          k =-0.5000 0.3750 0.0000 ( 14356 PWs)   bands (ev):

    -4.3653  -4.3428  -4.0178  -3.9872  -3.8614  -3.8390  -3.7795  -3.7249
    -3.5383  -3.4811  -3.1508  -3.0966  -2.9370  -2.9171  -2.4351  -2.4338
    -2.1935  -2.1586  -2.0262  -2.0164  -2.0018  -1.9476  -1.9321  -1.9309
    -1.8656  -1.8499  -1.7651  -1.7263  -1.4636  -1.4594   1.5287   1.5317
     2.8882   2.8897   4.5118   4.5219   6.0916   6.1079   6.4735   6.4930

          k =-0.5000-0.5000 0.0000 ( 14372 PWs)   bands (ev):

    -4.4552  -4.4320  -3.9705  -3.9705  -3.9297  -3.8891  -3.8073  -3.8073
    -3.4767  -3.4767  -3.2723  -3.2089  -2.9280  -2.9280  -2.1676  -2.1676
    -2.1200  -2.1036  -2.0038  -1.9878  -1.9793  -1.9732  -1.9476  -1.9157
    -1.8636  -1.8417  -1.6348  -1.5798  -1.4398  -1.4398   2.1247   2.1247
     3.7606   3.7606   5.3023   5.3090   5.6524   5.6611   5.8372   5.8372

     the Fermi energy is     1.5055 ev

!    total energy              =    -505.68349415 Ry
     estimated scf accuracy    <          7.5E-09 Ry
     smearing contrib. (-TS)   =      -0.00123487 Ry
     internal energy E=F+TS    =    -505.68225928 Ry

     The total energy is F=E-TS. E is the sum of the following terms:
     one-electron contribution =   -5374.18588955 Ry
     hartree contribution      =    2733.63632202 Ry
     xc contribution           =    -133.83112801 Ry
     ewald contribution        =    2268.85169891 Ry
     DFT-D3 Dispersion         =      -0.15326266 Ry

     convergence has been achieved in   7 iterations

     negative rho (up, down):  2.048E-05 0.000E+00

     Forces acting on atoms (cartesian axes, Ry/au):

     atom    1 type  1   force =     0.00000050    0.00000018   -0.00011566
     atom    2 type  1   force =     0.00000215   -0.00000015    0.00017372
     atom    3 type  1   force =    -0.00000103   -0.00000029    0.00250865
     atom    4 type  1   force =    -0.00000143    0.00000040   -0.00609773
     atom    5 type  1   force =    -0.00000022   -0.00000020    0.00700259
     atom    6 type  1   force =     0.00000003    0.00000006   -0.00347157
     The non-local contrib.  to forces
     atom    1 type  1   force =     0.00000076    0.00000002   -0.00102657
     atom    2 type  1   force =     0.00000138    0.00000015    0.13750287
     atom    3 type  1   force =    -0.00000053   -0.00000006    0.01271595
     atom    4 type  1   force =    -0.00000157    0.00000049   -0.01208548
     atom    5 type  1   force =     0.00000011   -0.00000008   -0.13587327
     atom    6 type  1   force =     0.00000045    0.00000015   -0.00517173
     The ionic contribution  to forces
     atom    1 type  1   force =     0.00000969   -0.00002032   76.37212026
     atom    2 type  1   force =     0.00004108    0.00000922  122.17515324
     atom    3 type  1   force =     0.00000486   -0.00000097  -25.54506322
     atom    4 type  1   force =    -0.00005546    0.00001204   24.97918073
     atom    5 type  1   force =     0.00000001   -0.00000000 -121.75649934
     atom    6 type  1   force =    -0.00000018    0.00000004  -76.22489168
     The local contribution  to forces
     atom    1 type  1   force =    -0.00000991    0.00002022  -76.36748522
     atom    2 type  1   force =    -0.00003974   -0.00000929 -122.30291434
     atom    3 type  1   force =    -0.00000508    0.00000109   25.53250968
     atom    4 type  1   force =     0.00005560   -0.00001166  -24.97240064
     atom    5 type  1   force =     0.00000003   -0.00000002  121.89186132
     atom    6 type  1   force =    -0.00000002   -0.00000015   76.22246409
     The core correction contribution to forces
     atom    1 type  1   force =    -0.00000003    0.00000006   -0.00042764
     atom    2 type  1   force =    -0.00000013   -0.00000002   -0.00676584
     atom    3 type  1   force =     0.00000001    0.00000002    0.00033799
     atom    4 type  1   force =     0.00000018   -0.00000002    0.00038416
     atom    5 type  1   force =     0.00000001    0.00000000    0.00565386
     atom    6 type  1   force =    -0.00000001   -0.00000001    0.00085957
     The Hubbard contrib.    to forces
     atom    1 type  1   force =     0.00000000    0.00000000    0.00000000
     atom    2 type  1   force =     0.00000000    0.00000000    0.00000000
     atom    3 type  1   force =     0.00000000    0.00000000    0.00000000
     atom    4 type  1   force =     0.00000000    0.00000000    0.00000000
     atom    5 type  1   force =     0.00000000    0.00000000    0.00000000
     atom    6 type  1   force =     0.00000000    0.00000000    0.00000000
     The SCF correction term to forces
     atom    1 type  1   force =     0.00000030    0.00000030   -0.00016337
     atom    2 type  1   force =    -0.00000008   -0.00000007   -0.00020221
     atom    3 type  1   force =    -0.00000000   -0.00000000    0.00000000
     atom    4 type  1   force =    -0.00000000   -0.00000000    0.00000000
     atom    5 type  1   force =    -0.00000000    0.00000000   -0.00000000
     atom    6 type  1   force =     0.00000000    0.00000000    0.00000000

     DFT-D3 dispersion contribution to forces:
     atom    1 type  1   force =    -0.00000004    0.00000003   -0.00312768
     atom    2 type  1   force =    -0.00000010   -0.00000001   -0.00259456
     atom    3 type  1   force =     0.00000002   -0.00000000    0.00195153
     atom    4 type  1   force =     0.00000012   -0.00000002   -0.00143784
     atom    5 type  1   force =    -0.00000000    0.00000000    0.00194140
     atom    6 type  1   force =     0.00000000   -0.00000000    0.00326715

     Total force =     0.000209     Total SCF correction =     0.000260
     SCF correction compared to forces is large: reduce conv_thr to get better values


     Computing stress (Cartesian axis) and pressure


     negative rho (up, down):  2.048E-05 0.000E+00
          total   stress  (Ry/bohr**3)                   (kbar)     P=      -19.34
  -0.00016317   0.00000000   0.00000000          -24.00        0.00        0.00
   0.00000000  -0.00016317   0.00000000            0.00      -24.00        0.00
   0.00000000   0.00000000  -0.00006815            0.00        0.00      -10.03

     Energy error            =      1.6E-05 Ry
     Gradient error          =      1.7E-04 Ry/Bohr

     bfgs converged in  13 scf cycles and  12 bfgs steps
     (criteria: energy <  1.0E-04 Ry, force <  1.0E-03 Ry/Bohr)

     End of BFGS Geometry Optimization

     Final energy             =    -505.6834941536 Ry

     File ./Ag_100/Ag_100.bfgs deleted, as requested
Begin final coordinates

ATOMIC_POSITIONS (angstrom)
Ag            2.4834647401        2.4834840638       16.5949994991
Ag            0.8277988945        0.8278280139       18.1779370114
Ag            2.4834810021        2.4834810021       13.3113080028    0   0   0
Ag            0.8278270007        0.8278270007       14.9669620042    0   0   0
Ag            2.4834810021        2.4834810021       10.0000000000    0   0   0
Ag            0.8278270007        0.8278270007       11.6556540014    0   0   0
End final coordinates



     Writing all to output data dir ./Ag_100/Ag_100.save/

     init_run     :      4.29s CPU      6.11s WALL (       1 calls)
     electrons    :     47.13s CPU     57.88s WALL (      13 calls)
     update_pot   :      2.96s CPU      3.43s WALL (      12 calls)
     forces       :      3.83s CPU      5.28s WALL (      13 calls)
     force_dftd3  :      0.89s CPU      1.38s WALL (      13 calls)
     stress       :     11.15s CPU     11.55s WALL (      13 calls)
     stres_dftd3  :      0.14s CPU      0.23s WALL (      13 calls)

     Called by init_run:
     wfcinit      :      0.29s CPU      0.46s WALL (       1 calls)
     potinit      :      0.93s CPU      1.94s WALL (       1 calls)
     hinit0       :      2.94s CPU      3.41s WALL (       1 calls)

     Called by electrons:
     c_bands      :     36.79s CPU     39.78s WALL (     100 calls)
     sum_band     :      5.84s CPU      6.47s WALL (     100 calls)
     v_of_rho     :      2.39s CPU      7.99s WALL (     101 calls)
     newd         :      2.80s CPU      4.71s WALL (     101 calls)
     mix_rho      :      0.18s CPU      0.25s WALL (     100 calls)
     energy_dftd3 :      0.02s CPU      0.02s WALL (      13 calls)

     Called by c_bands:
     init_us_2    :      0.32s CPU      0.34s WALL (    2043 calls)
     init_us_2:cp :      0.31s CPU      0.34s WALL (    2043 calls)
     cegterg      :     33.65s CPU     35.61s WALL (     900 calls)

     Called by *egterg:
     cdiaghg      :      6.54s CPU      6.60s WALL (    3204 calls)
     h_psi        :     21.77s CPU     23.48s WALL (    3429 calls)
     s_psi        :      1.02s CPU      1.05s WALL (    3429 calls)
     g_psi        :      0.10s CPU      0.10s WALL (    2520 calls)

     Called by h_psi:
     h_psi:calbec :      1.75s CPU      1.99s WALL (    3429 calls)
     vloc_psi     :     18.94s CPU     20.36s WALL (    3429 calls)
     add_vuspsi   :      1.00s CPU      1.05s WALL (    3429 calls)

     General routines
     calbec       :      3.09s CPU      3.44s WALL (    4914 calls)
     fft          :      6.20s CPU     15.02s WALL (    1636 calls)
     ffts         :      0.80s CPU      0.84s WALL (     201 calls)
     fftw         :     20.16s CPU     21.63s WALL (  223650 calls)
     interpolate  :      1.03s CPU      1.55s WALL (     101 calls)

     Parallel routines

     PWSCF        :   1m10.77s CPU   1m27.20s WALL


   This run was terminated on:  11:25:53  18Jul2025            

=------------------------------------------------------------------------------=
   JOB DONE.
=------------------------------------------------------------------------------=
[1752848753.497801] [rome35:333473:0]           flush.c:57   UCX  ERROR req 0x2ebbd80: error during flush: Connection reset by remote peer
[1752848753.498109] [rome35:333473:0]           flush.c:57   UCX  ERROR req 0x2ebbd80: error during flush: Connection reset by remote peer
