
     Program PWSCF v.7.2 starts on 24Jul2025 at  6:25:11 

     This program is part of the open-source Quantum ESPRESSO suite
     for quantum simulation of materials; please cite
         "P. Giannozzi et al., J. Phys.:Condens. Matter 21 395502 (2009);
         "P. Giannozzi et al., J. Phys.:Condens. Matter 29 465901 (2017);
         "P. Giannozzi et al., J. Chem. Phys. 152 154105 (2020);
          URL http://www.quantum-espresso.org", 
     in publications or presentations arising from this work. More details at
     http://www.quantum-espresso.org/quote

     Parallel version (MPI & OpenMP), running on     192 processor cores
     Number of MPI processes:               192
     Threads/MPI process:                     1

     MPI processes distributed on     3 nodes
     240873 MiB available memory on the printing compute node when the environment starts

     Reading input from Ag_mp-2646971_111_bridge_0.in

     Current dimensions of program PWSCF are:
     Max number of different atomic species (ntypx) = 10
     Max number of k-points (npk) =  40000
     Max angular momentum in pseudopotentials (lmaxx) =  4
     Message from routine iosys:
     restart disabled: needed files not found

     K-points division:     npool     =       4
     R & G space division:  proc/nbgrp/npool/nimage =      48
     Subspace diagonalization in iterative solution of the eigenvalue problem:
     a serial algorithm will be used


     Parallelization info
     --------------------
     sticks:   dense  smooth     PW     G-vecs:    dense   smooth      PW
     Min          56      24      7                13764     4000     628
     Max          57      25      8                13787     4039     653
     Sum        2713    1189    349               661159   192697   30755

     Using Slab Decomposition



     bravais-lattice index     =            0
     lattice parameter (alat)  =       8.8494  a.u.
     unit-cell volume          =    3499.1022 (a.u.)^3
     number of atoms/cell      =           10
     number of atomic types    =            2
     number of electrons       =       102.00
     number of Kohn-Sham states=           61
     kinetic-energy cutoff     =      55.0000  Ry
     charge density cutoff     =     500.0000  Ry
     scf convergence threshold =      1.0E-06
     mixing beta               =       0.3000
     number of iterations used =            8  plain     mixing
     energy convergence thresh.=      1.0E-04
     force convergence thresh. =      1.0E-03
     Exchange-correlation= PBE
                           (   1   4   3   4   0   0   0)
     nstep                     =          500


     celldm(1)=   8.849392  celldm(2)=   0.000000  celldm(3)=   0.000000
     celldm(4)=   0.000000  celldm(5)=   0.000000  celldm(6)=   0.000000

     crystal axes: (cart. coord. in units of alat)
               a(1) = (   0.997419   0.000000  -0.071796 )  
               a(2) = (   0.501294   0.865277   0.000000 )  
               a(3) = (   0.000000   0.000000   5.850369 )  

     reciprocal axes: (cart. coord. in units 2 pi/alat)
               b(1) = (  1.002587 -0.580844  0.000000 )  
               b(2) = ( -0.000000  1.155699  0.000000 )  
               b(3) = (  0.012304 -0.007128  0.170929 )  


     PseudoPot. # 1 for Li read from file:
     /home/ecastro/trabajo_final/pseudos/Li.pbe-s-rrkjus_psl.1.0.0.UPF
     MD5 check sum: 9f98d2529904d60b716d33989e9bc179
     Pseudo is Ultrasoft, Zval =  3.0
     Generated using &quot;atomic&quot; code by A. Dal Corso  v.6.3MaX
     Using radial grid of 1017 points,  4 beta functions with: 
                l(1) =   0
                l(2) =   0
                l(3) =   1
                l(4) =   1
     Q(r) pseudized with 0 coefficients 


     PseudoPot. # 2 for Ag read from file:
     /home/ecastro/trabajo_final/pseudos/Ag.pbe-n-rrkjus_psl.1.0.0.UPF
     MD5 check sum: 81cdf87bacf708300839c66ee23ce017
     Pseudo is Ultrasoft + core correction, Zval = 11.0
     Generated using &quot;atomic&quot; code by A. Dal Corso  v.6.2.2
     Using radial grid of 1237 points,  6 beta functions with: 
                l(1) =   0
                l(2) =   0
                l(3) =   1
                l(4) =   1
                l(5) =   2
                l(6) =   2
     Q(r) pseudized with 0 coefficients 


     atomic species   valence    mass     pseudopotential
        Li             3.00     6.94100     Li( 1.00)
        Ag            11.00   107.86820     Ag( 1.00)

     No symmetry found



   Cartesian axes

     site n.     atom                  positions (alat units)
         1           Ag  tau(   1) = (   0.9602196   0.6957065   3.4973174  )
         2           Ag  tau(   2) = (   0.9708482   0.1116992   3.6449910  )
         3           Ag  tau(   3) = (   0.9293743   0.1357298   3.0687760  )
         4           Ag  tau(   4) = (   0.4474382   0.4149353   3.3377079  )
         5           Ag  tau(   5) = (   0.4022408   0.4411217   2.7097969  )
         6           Ag  tau(   6) = (   0.9164544   0.7210643   2.8892865  )
         7           Ag  tau(   7) = (   0.8725266   0.7465137   2.2790220  )
         8           Ag  tau(   8) = (   0.8854465   0.1611791   2.4585116  )
         9           Ag  tau(   9) = (   0.3583130   0.4665710   2.0995325  )
        10           Li  tau(  10) = (   0.4974608   0.3859537   4.0720771  )

     --------------------------------------------
     DFT-D3 Dispersion Correction (no 3-body):
     --------------------------------------------
       Reference C6 values for interpolation: 

         atom   Coordination number   C6
         Li         0.000          2326.89
         Li         0.987           170.64
         Ag         0.000           853.49
         Ag         0.968           537.23

       Values used:

         atom   Coordination number  R0_AB[au]  C6      C8
         Ag         6.505            3.147    537.23  47741.54
         Ag         5.575            3.147    537.23  47741.54
         Ag         7.552            3.147    537.23  47741.54
         Ag         7.099            3.147    537.23  47741.54
         Ag         7.391            3.147    537.23  47741.54
         Ag         7.408            3.147    537.23  47741.54
         Ag         6.027            3.147    537.23  47741.54
         Ag         6.732            3.147    537.23  47741.54
         Ag         3.768            3.147    537.23  47741.54
         Li         1.575            3.303    170.79  12911.58

         Molecular C6 ( Ry / a.u.^6 ) =     48895.76


     number of k points=    34  Methfessel-Paxton smearing, width (Ry)=  0.0300
                       cart. coord. in units 2pi/alat
        k(    1) = (   0.0000000   0.0000000   0.0000000), wk =   0.0312500
        k(    2) = (   0.0000000   0.1444624   0.0000000), wk =   0.0625000
        k(    3) = (   0.0000000   0.2889247   0.0000000), wk =   0.0625000
        k(    4) = (   0.0000000   0.4333871   0.0000000), wk =   0.0625000
        k(    5) = (   0.0000000  -0.5778495   0.0000000), wk =   0.0312500
        k(    6) = (   0.1253234  -0.0726054   0.0000000), wk =   0.0625000
        k(    7) = (   0.1253234   0.0718569   0.0000000), wk =   0.0625000
        k(    8) = (   0.1253234   0.2163193   0.0000000), wk =   0.0625000
        k(    9) = (   0.1253234   0.3607817   0.0000000), wk =   0.0625000
        k(   10) = (   0.1253234  -0.6504549   0.0000000), wk =   0.0625000
        k(   11) = (   0.1253234  -0.5059926   0.0000000), wk =   0.0625000
        k(   12) = (   0.1253234  -0.3615302   0.0000000), wk =   0.0625000
        k(   13) = (   0.1253234  -0.2170678   0.0000000), wk =   0.0625000
        k(   14) = (   0.2506468  -0.1452109   0.0000000), wk =   0.0625000
        k(   15) = (   0.2506468  -0.0007485   0.0000000), wk =   0.0625000
        k(   16) = (   0.2506468   0.1437139   0.0000000), wk =   0.0625000
        k(   17) = (   0.2506468   0.2881762   0.0000000), wk =   0.0625000
        k(   18) = (   0.2506468  -0.7230604   0.0000000), wk =   0.0625000
        k(   19) = (   0.2506468  -0.5785980   0.0000000), wk =   0.0625000
        k(   20) = (   0.2506468  -0.4341356   0.0000000), wk =   0.0625000
        k(   21) = (   0.2506468  -0.2896733   0.0000000), wk =   0.0625000
        k(   22) = (   0.3759702  -0.2178163   0.0000000), wk =   0.0625000
        k(   23) = (   0.3759702  -0.0733540   0.0000000), wk =   0.0625000
        k(   24) = (   0.3759702   0.0711084   0.0000000), wk =   0.0625000
        k(   25) = (   0.3759702   0.2155708   0.0000000), wk =   0.0625000
        k(   26) = (   0.3759702  -0.7956658   0.0000000), wk =   0.0625000
        k(   27) = (   0.3759702  -0.6512034   0.0000000), wk =   0.0625000
        k(   28) = (   0.3759702  -0.5067411   0.0000000), wk =   0.0625000
        k(   29) = (   0.3759702  -0.3622787   0.0000000), wk =   0.0625000
        k(   30) = (  -0.5012937   0.2904218   0.0000000), wk =   0.0312500
        k(   31) = (  -0.5012937   0.4348841   0.0000000), wk =   0.0625000
        k(   32) = (  -0.5012937   0.5793465   0.0000000), wk =   0.0625000
        k(   33) = (  -0.5012937   0.7238089   0.0000000), wk =   0.0625000
        k(   34) = (  -0.5012937  -0.2874277   0.0000000), wk =   0.0312500

     Dense  grid:   661159 G-vectors     FFT dimensions: (  64,  64, 375)

     Smooth grid:   192697 G-vectors     FFT dimensions: (  45,  45, 250)

     Estimated max dynamical RAM per process >      29.11 MB

     Estimated total dynamical RAM >       4.98 GB
     Cannot read rho : file not found

     Initial potential from superposition of free atoms

     starting charge     101.9918, renormalised to     102.0000

     negative rho (up, down):  7.598E-05 0.000E+00
     Message from routine qexsd_readschema :
     xml data file ./Ag_mp-2646971_111_bridge_0/Ag_mp-2646971_111_bridge_0.save/data-
     Cannot read wfcs: file not found
     Starting wfcs are   86 randomized atomic wfcs

     total cpu time spent up to now is        4.3 secs

     per-process dynamical memory:   182.2 Mb

     Self-consistent Calculation

     iteration #  1     ecut=    55.00 Ry     beta= 0.30
     Davidson diagonalization with overlap
     c_bands:  2 eigenvalues not converged
     c_bands:  1 eigenvalues not converged
     c_bands:  1 eigenvalues not converged
     c_bands:  1 eigenvalues not converged
     c_bands:  1 eigenvalues not converged
     c_bands:  2 eigenvalues not converged
     c_bands:  2 eigenvalues not converged
     ethr =  1.00E-05,  avg # of iterations = 17.9

     negative rho (up, down):  6.214E-05 0.000E+00

     total cpu time spent up to now is        9.3 secs

     total energy              =    -773.24674215 Ry
     estimated scf accuracy    <       0.41601162 Ry

     iteration #  2     ecut=    55.00 Ry     beta= 0.30
     Davidson diagonalization with overlap
     ethr =  4.08E-04,  avg # of iterations =  8.5

     negative rho (up, down):  8.456E-05 0.000E+00

     total cpu time spent up to now is       11.0 secs

     total energy              =    -773.08843555 Ry
     estimated scf accuracy    <       3.47675793 Ry

     iteration #  3     ecut=    55.00 Ry     beta= 0.30
     Davidson diagonalization with overlap
     ethr =  4.08E-04,  avg # of iterations = 10.1

     negative rho (up, down):  1.068E-04 0.000E+00

     total cpu time spent up to now is       12.6 secs

     total energy              =    -773.31588880 Ry
     estimated scf accuracy    <       1.35350296 Ry

     iteration #  4     ecut=    55.00 Ry     beta= 0.30
     Davidson diagonalization with overlap
     ethr =  4.08E-04,  avg # of iterations =  2.0

     negative rho (up, down):  6.044E-05 0.000E+00

     total cpu time spent up to now is       13.6 secs

     total energy              =    -773.36954237 Ry
     estimated scf accuracy    <       0.05792559 Ry

     iteration #  5     ecut=    55.00 Ry     beta= 0.30
     Davidson diagonalization with overlap
     ethr =  5.68E-05,  avg # of iterations = 10.2

     negative rho (up, down):  2.633E-05 0.000E+00

     total cpu time spent up to now is       15.0 secs

     total energy              =    -773.37186364 Ry
     estimated scf accuracy    <       0.00595699 Ry

     iteration #  6     ecut=    55.00 Ry     beta= 0.30
     Davidson diagonalization with overlap
     ethr =  5.84E-06,  avg # of iterations = 10.3

     negative rho (up, down):  2.534E-05 0.000E+00

     total cpu time spent up to now is       16.7 secs

     total energy              =    -773.37266173 Ry
     estimated scf accuracy    <       0.00081005 Ry

     iteration #  7     ecut=    55.00 Ry     beta= 0.30
     Davidson diagonalization with overlap
     ethr =  7.94E-07,  avg # of iterations =  2.1

     negative rho (up, down):  3.799E-05 0.000E+00

     total cpu time spent up to now is       17.7 secs

     total energy              =    -773.37278659 Ry
     estimated scf accuracy    <       0.00018417 Ry

     iteration #  8     ecut=    55.00 Ry     beta= 0.30
     Davidson diagonalization with overlap
     ethr =  1.81E-07,  avg # of iterations =  2.6

     negative rho (up, down):  4.773E-05 0.000E+00

     total cpu time spent up to now is       18.7 secs

     total energy              =    -773.37282034 Ry
     estimated scf accuracy    <       0.00003385 Ry

     iteration #  9     ecut=    55.00 Ry     beta= 0.30
     Davidson diagonalization with overlap
     ethr =  3.32E-08,  avg # of iterations =  5.1

     negative rho (up, down):  4.118E-05 0.000E+00

     total cpu time spent up to now is       19.9 secs

     total energy              =    -773.37282752 Ry
     estimated scf accuracy    <       0.00000674 Ry

     iteration # 10     ecut=    55.00 Ry     beta= 0.30
     Davidson diagonalization with overlap
     ethr =  6.61E-09,  avg # of iterations =  3.5

     negative rho (up, down):  3.474E-05 0.000E+00

     total cpu time spent up to now is       21.0 secs

     total energy              =    -773.37282905 Ry
     estimated scf accuracy    <       0.00000126 Ry

     iteration # 11     ecut=    55.00 Ry     beta= 0.30
     Davidson diagonalization with overlap
     ethr =  1.24E-09,  avg # of iterations =  4.4

     negative rho (up, down):  2.460E-05 0.000E+00

     total cpu time spent up to now is       22.1 secs

     End of self-consistent calculation

          k = 0.0000 0.0000 0.0000 ( 24179 PWs)   bands (ev):

   -46.5217  -5.2497  -4.2194  -4.1170  -4.1170  -3.6354  -3.6353  -3.5972
    -3.4315  -3.4315  -3.4165  -3.3693  -3.3693  -3.2155  -3.1856  -3.1854
    -3.1180  -3.1180  -3.0300  -3.0300  -2.9576  -2.8675  -2.8672  -2.6828
    -2.6214  -2.5651  -2.5651  -2.1302  -1.9961  -1.9035  -1.9024  -1.8329
    -1.8326  -1.8162  -1.8162  -1.7354  -1.7354  -1.7048  -1.7048  -1.6402
    -1.6401  -1.5658  -1.5658  -1.4253  -1.3363  -1.3361  -1.1557  -1.1557
    -0.7530   0.7214   2.1744   3.5383   4.5861   5.3372   5.4010   6.3668
     6.3806   6.5598   6.5627   6.6782   6.8190

          k = 0.0000 0.1445 0.0000 ( 24156 PWs)   bands (ev):

   -46.5217  -5.0951  -4.1692  -4.0552  -4.0549  -3.7178  -3.6510  -3.6039
    -3.5803  -3.5001  -3.4616  -3.3904  -3.3304  -3.3222  -3.2463  -3.0866
    -3.0718  -3.0420  -2.9962  -2.9197  -2.8573  -2.7999  -2.7716  -2.6083
    -2.5430  -2.4971  -2.4854  -2.1166  -1.9968  -1.9711  -1.9347  -1.8726
    -1.8635  -1.8132  -1.7736  -1.7521  -1.7355  -1.7241  -1.7032  -1.6803
    -1.6682  -1.5822  -1.5821  -1.4565  -1.3971  -1.3468  -1.2243  -1.1328
    -0.6784   0.8339   2.2942   3.6572   4.2725   4.7205   5.0093   5.1109
     5.4583   5.5421   5.9418   6.1629   6.2213

          k = 0.0000 0.2889 0.0000 ( 24139 PWs)   bands (ev):

   -46.5216  -4.6664  -4.0912  -3.9198  -3.8823  -3.8529  -3.7685  -3.6782
    -3.6086  -3.5259  -3.4769  -3.4175  -3.3493  -3.3180  -3.1787  -3.1175
    -3.0893  -2.9493  -2.8912  -2.8765  -2.7978  -2.6288  -2.6123  -2.4795
    -2.3808  -2.3600  -2.2092  -2.1246  -2.1128  -2.0108  -1.9520  -1.9227
    -1.8750  -1.8666  -1.8492  -1.8031  -1.7602  -1.7501  -1.6812  -1.6734
    -1.6608  -1.5894  -1.5822  -1.5378  -1.4385  -1.3834  -1.3470  -1.0886
    -0.3957   1.1902   2.1736   2.6446   3.1204   3.7298   3.9718   4.4498
     4.9541   5.1368   5.7394   5.8207   5.8835

          k = 0.0000 0.4334 0.0000 ( 24088 PWs)   bands (ev):

   -46.5216  -4.1831  -4.0668  -4.0409  -3.7807  -3.6815  -3.6767  -3.5917
    -3.5827  -3.4850  -3.4516  -3.4477  -3.3109  -3.2768  -3.1739  -3.1230
    -3.0453  -2.9712  -2.9059  -2.8065  -2.8047  -2.6182  -2.5945  -2.4898
    -2.4159  -2.3448  -2.1743  -2.1706  -2.1124  -2.0194  -2.0038  -1.9716
    -1.9046  -1.8415  -1.8029  -1.7869  -1.7664  -1.7337  -1.6779  -1.6431
    -1.6205  -1.5533  -1.4989  -1.4093  -1.3306  -1.3066  -1.1753  -1.0497
     0.2114   0.4121   1.3334   1.8104   2.7658   2.7810   3.2987   4.0303
     4.2812   5.1068   5.6329   5.7254   6.0071

          k = 0.0000-0.5778 0.0000 ( 24060 PWs)   bands (ev):

   -46.5215  -4.1892  -4.1321  -3.7655  -3.6768  -3.6630  -3.6293  -3.5560
    -3.4945  -3.4657  -3.3601  -3.3433  -3.2888  -3.2752  -3.2439  -3.1851
    -3.1005  -2.9554  -2.9389  -2.8124  -2.7989  -2.6748  -2.6409  -2.5239
    -2.4587  -2.4172  -2.1711  -2.1633  -2.0763  -2.0605  -2.0096  -1.9757
    -1.8793  -1.8711  -1.8510  -1.7840  -1.7700  -1.7313  -1.7260  -1.6508
    -1.5454  -1.4622  -1.4323  -1.2360  -1.1691  -1.0165  -1.0157  -0.8634
    -0.2218  -0.0509   1.1855   1.4670   2.4038   2.4924   3.2061   3.9508
     4.0402   4.9321   5.5915   5.6302   5.9336

          k = 0.1253-0.0726 0.0000 ( 24146 PWs)   bands (ev):

   -46.5216  -5.0951  -4.1692  -4.0552  -4.0548  -3.7177  -3.6509  -3.6040
    -3.5803  -3.5000  -3.4616  -3.3903  -3.3301  -3.3222  -3.2463  -3.0865
    -3.0718  -3.0422  -2.9962  -2.9199  -2.8571  -2.8004  -2.7716  -2.6081
    -2.5429  -2.4971  -2.4854  -2.1165  -1.9967  -1.9712  -1.9342  -1.8733
    -1.8631  -1.8133  -1.7737  -1.7520  -1.7356  -1.7241  -1.7032  -1.6803
    -1.6682  -1.5822  -1.5820  -1.4563  -1.3971  -1.3469  -1.2243  -1.1328
    -0.6783   0.8340   2.2943   3.6572   4.2732   4.7223   5.0083   5.1121
     5.4286   5.5760   5.9388   6.1634   6.2238

          k = 0.1253 0.0719 0.0000 ( 24156 PWs)   bands (ev):

   -46.5217  -5.0951  -4.1692  -4.0552  -4.0549  -3.7178  -3.6510  -3.6039
    -3.5803  -3.5001  -3.4616  -3.3904  -3.3304  -3.3222  -3.2463  -3.0866
    -3.0718  -3.0420  -2.9962  -2.9197  -2.8573  -2.7999  -2.7716  -2.6083
    -2.5430  -2.4971  -2.4854  -2.1166  -1.9968  -1.9711  -1.9347  -1.8726
    -1.8635  -1.8132  -1.7736  -1.7520  -1.7355  -1.7241  -1.7032  -1.6803
    -1.6682  -1.5822  -1.5821  -1.4565  -1.3971  -1.3468  -1.2243  -1.1328
    -0.6784   0.8339   2.2942   3.6572   4.2725   4.7205   5.0093   5.1109
     5.4583   5.5421   5.9417   6.1629   6.2213

          k = 0.1253 0.2163 0.0000 ( 24149 PWs)   bands (ev):

   -46.5216  -4.8039  -4.0940  -3.9483  -3.9410  -3.7978  -3.7499  -3.6672
    -3.6349  -3.5248  -3.4916  -3.3934  -3.3469  -3.3263  -3.2832  -3.1209
    -3.0680  -3.0290  -2.8717  -2.8095  -2.7206  -2.6887  -2.6131  -2.5308
    -2.4336  -2.3519  -2.3217  -2.1343  -2.0271  -2.0131  -1.9937  -1.9278
    -1.8910  -1.8670  -1.8446  -1.8043  -1.7595  -1.7210  -1.6861  -1.6800
    -1.6340  -1.6052  -1.5758  -1.5168  -1.4967  -1.3743  -1.2096  -1.1641
    -0.4961   1.0716   2.5351   3.1600   3.2272   3.8891   4.1026   4.2362
     4.9774   5.4235   5.4637   5.7456   5.9126

          k = 0.1253 0.3608 0.0000 ( 24102 PWs)   bands (ev):

   -46.5216  -4.3216  -4.0484  -3.9335  -3.8524  -3.7739  -3.7202  -3.6948
    -3.6450  -3.5395  -3.4833  -3.3886  -3.3649  -3.2618  -3.1976  -3.1170
    -3.1028  -3.0103  -2.8215  -2.7877  -2.6885  -2.5745  -2.4959  -2.4070
    -2.3643  -2.2822  -2.2018  -2.1706  -2.1282  -2.0241  -2.0059  -1.9561
    -1.9358  -1.8976  -1.8328  -1.8094  -1.7858  -1.7643  -1.7299  -1.6563
    -1.6205  -1.6034  -1.4959  -1.4497  -1.4353  -1.3284  -1.2495  -1.1360
    -0.0219   1.2565   1.5765   2.2131   2.3322   3.0227   3.4122   3.8046
     4.2532   4.9112   5.3943   5.6322   6.1757

          k = 0.1253-0.6505 0.0000 ( 24065 PWs)   bands (ev):

   -46.5216  -4.1211  -4.0774  -3.8832  -3.7504  -3.6777  -3.6506  -3.5778
    -3.5645  -3.5067  -3.4559  -3.4156  -3.3023  -3.2263  -3.1567  -3.0892
    -3.0508  -2.9698  -2.9088  -2.8252  -2.7663  -2.6339  -2.5620  -2.4056
    -2.3831  -2.2873  -2.2388  -2.1974  -2.1361  -2.0286  -1.9976  -1.9495
    -1.9223  -1.8783  -1.8407  -1.8170  -1.7793  -1.7548  -1.7229  -1.6871
    -1.5951  -1.4078  -1.3974  -1.3408  -1.2317  -1.1772  -1.1042  -0.6590
    -0.3124   0.5715   0.9417   1.6564   2.0426   2.4744   3.0867   3.4990
     3.9451   4.7494   5.1677   5.5226   6.2387

          k = 0.1253-0.5060 0.0000 ( 24070 PWs)   bands (ev):

   -46.5216  -4.1211  -4.0774  -3.8832  -3.7503  -3.6778  -3.6505  -3.5779
    -3.5645  -3.5066  -3.4558  -3.4158  -3.3025  -3.2264  -3.1567  -3.0893
    -3.0508  -2.9698  -2.9089  -2.8252  -2.7663  -2.6340  -2.5620  -2.4054
    -2.3832  -2.2872  -2.2388  -2.1974  -2.1360  -2.0287  -1.9977  -1.9495
    -1.9223  -1.8782  -1.8407  -1.8171  -1.7793  -1.7548  -1.7229  -1.6871
    -1.5952  -1.4079  -1.3974  -1.3407  -1.2317  -1.1772  -1.1043  -0.6590
    -0.3124   0.5714   0.9419   1.6563   2.0428   2.4747   3.0864   3.4990
     3.9449   4.7500   5.1680   5.5221   6.2350

          k = 0.1253-0.3615 0.0000 ( 24099 PWs)   bands (ev):

   -46.5216  -4.3216  -4.0484  -3.9335  -3.8524  -3.7738  -3.7202  -3.6949
    -3.6450  -3.5396  -3.4833  -3.3887  -3.3653  -3.2617  -3.1976  -3.1171
    -3.1027  -3.0104  -2.8213  -2.7882  -2.6884  -2.5745  -2.4957  -2.4070
    -2.3641  -2.2821  -2.2016  -2.1707  -2.1282  -2.0241  -2.0059  -1.9559
    -1.9359  -1.8979  -1.8328  -1.8094  -1.7858  -1.7643  -1.7299  -1.6562
    -1.6203  -1.6036  -1.4958  -1.4495  -1.4354  -1.3283  -1.2495  -1.1360
    -0.0218   1.2565   1.5768   2.2145   2.3307   3.0231   3.4135   3.8038
     4.2531   4.9118   5.3922   5.6435   6.1281

          k = 0.1253-0.2171 0.0000 ( 24155 PWs)   bands (ev):

   -46.5217  -4.8039  -4.0940  -3.9483  -3.9409  -3.7978  -3.7500  -3.6671
    -3.6349  -3.5250  -3.4915  -3.3935  -3.3465  -3.3266  -3.2833  -3.1209
    -3.0679  -3.0291  -2.8717  -2.8100  -2.7204  -2.6887  -2.6133  -2.5308
    -2.4336  -2.3519  -2.3215  -2.1343  -2.0271  -2.0129  -1.9930  -1.9277
    -1.8915  -1.8671  -1.8446  -1.8041  -1.7595  -1.7210  -1.6862  -1.6802
    -1.6339  -1.6052  -1.5758  -1.5167  -1.4966  -1.3745  -1.2096  -1.1641
    -0.4959   1.0718   2.5352   3.1604   3.2271   3.8896   4.1027   4.2369
     4.9813   5.4201   5.4605   5.7166   5.9585

          k = 0.2506-0.1452 0.0000 ( 24164 PWs)   bands (ev):

   -46.5217  -4.6664  -4.0912  -3.9197  -3.8823  -3.8530  -3.7686  -3.6783
    -3.6087  -3.5260  -3.4770  -3.4173  -3.3493  -3.3178  -3.1787  -3.1174
    -3.0893  -2.9494  -2.8911  -2.8768  -2.7986  -2.6291  -2.6122  -2.4796
    -2.3808  -2.3600  -2.2088  -2.1247  -2.1129  -2.0102  -1.9521  -1.9227
    -1.8751  -1.8666  -1.8489  -1.8033  -1.7602  -1.7501  -1.6811  -1.6735
    -1.6608  -1.5895  -1.5823  -1.5377  -1.4385  -1.3835  -1.3470  -1.0887
    -0.3956   1.1905   2.1739   2.6444   3.1218   3.7293   3.9724   4.4513
     4.9526   5.1440   5.6660   5.8216   6.0169

          k = 0.2506-0.0007 0.0000 ( 24155 PWs)   bands (ev):

   -46.5217  -4.8039  -4.0940  -3.9483  -3.9409  -3.7978  -3.7500  -3.6671
    -3.6349  -3.5250  -3.4915  -3.3935  -3.3465  -3.3266  -3.2833  -3.1209
    -3.0679  -3.0291  -2.8717  -2.8100  -2.7204  -2.6887  -2.6133  -2.5308
    -2.4336  -2.3519  -2.3215  -2.1343  -2.0271  -2.0129  -1.9930  -1.9277
    -1.8915  -1.8671  -1.8446  -1.8041  -1.7595  -1.7210  -1.6862  -1.6802
    -1.6339  -1.6052  -1.5758  -1.5167  -1.4966  -1.3745  -1.2096  -1.1641
    -0.4959   1.0718   2.5352   3.1604   3.2271   3.8896   4.1027   4.2369
     4.9813   5.4203   5.4607   5.7170   5.9587

          k = 0.2506 0.1437 0.0000 ( 24139 PWs)   bands (ev):

   -46.5216  -4.6664  -4.0911  -3.9198  -3.8823  -3.8529  -3.7685  -3.6782
    -3.6086  -3.5259  -3.4769  -3.4175  -3.3493  -3.3180  -3.1787  -3.1175
    -3.0893  -2.9493  -2.8912  -2.8765  -2.7978  -2.6288  -2.6123  -2.4795
    -2.3808  -2.3600  -2.2092  -2.1246  -2.1128  -2.0108  -1.9520  -1.9227
    -1.8750  -1.8666  -1.8492  -1.8031  -1.7602  -1.7501  -1.6812  -1.6734
    -1.6608  -1.5894  -1.5822  -1.5378  -1.4385  -1.3834  -1.3470  -1.0886
    -0.3957   1.1902   2.1736   2.6446   3.1204   3.7298   3.9718   4.4498
     4.9540   5.1368   5.7389   5.8205   5.8831

          k = 0.2506 0.2882 0.0000 ( 24102 PWs)   bands (ev):

   -46.5216  -4.3216  -4.0484  -3.9335  -3.8524  -3.7739  -3.7202  -3.6948
    -3.6450  -3.5395  -3.4833  -3.3886  -3.3649  -3.2618  -3.1976  -3.1170
    -3.1028  -3.0103  -2.8215  -2.7877  -2.6885  -2.5745  -2.4959  -2.4070
    -2.3643  -2.2822  -2.2018  -2.1706  -2.1282  -2.0241  -2.0059  -1.9561
    -1.9358  -1.8976  -1.8328  -1.8094  -1.7858  -1.7643  -1.7299  -1.6563
    -1.6205  -1.6034  -1.4959  -1.4497  -1.4353  -1.3284  -1.2495  -1.1360
    -0.0219   1.2565   1.5765   2.2131   2.3322   3.0227   3.4122   3.8046
     4.2532   4.9112   5.3944   5.6324   6.1757

          k = 0.2506-0.7231 0.0000 ( 24086 PWs)   bands (ev):

   -46.5216  -4.0221  -3.9613  -3.9252  -3.9006  -3.8435  -3.6783  -3.6276
    -3.5775  -3.4650  -3.4091  -3.3748  -3.3628  -3.2362  -3.2117  -3.1443
    -3.0867  -2.9875  -2.8283  -2.7013  -2.6283  -2.5664  -2.4630  -2.3988
    -2.3374  -2.3056  -2.2049  -2.1564  -2.1268  -2.0377  -2.0032  -1.9532
    -1.9195  -1.9009  -1.8821  -1.8537  -1.8095  -1.7923  -1.6894  -1.6701
    -1.5898  -1.5622  -1.3928  -1.3193  -1.2520  -1.2178  -1.1553  -0.8330
     0.4824   0.5537   0.7266   1.6726   1.8027   2.2642   3.3064   3.3662
     3.7154   4.3328   4.8350   5.6019   6.0905

          k = 0.2506-0.5786 0.0000 ( 24049 PWs)   bands (ev):

   -46.5215  -4.0178  -3.9750  -3.8992  -3.8689  -3.7380  -3.6897  -3.5860
    -3.5411  -3.4748  -3.4424  -3.3624  -3.3175  -3.2574  -3.1486  -3.1209
    -3.0270  -2.9689  -2.9019  -2.7794  -2.6258  -2.5442  -2.4863  -2.4353
    -2.3152  -2.2603  -2.1924  -2.1272  -2.1021  -2.0544  -2.0192  -1.9827
    -1.9491  -1.9265  -1.8979  -1.8446  -1.8308  -1.7609  -1.6691  -1.6248
    -1.4703  -1.3858  -1.3501  -1.1746  -1.1491  -1.1164  -0.9435  -0.8259
     0.0512   0.2992   0.3409   1.3899   1.9252   2.0069   2.9788   3.2342
     3.6871   4.3194   4.5100   5.2773   6.2038

          k = 0.2506-0.4341 0.0000 ( 24068 PWs)   bands (ev):

   -46.5215  -4.0220  -3.9612  -3.9252  -3.9007  -3.8435  -3.6782  -3.6277
    -3.5774  -3.4651  -3.4091  -3.3750  -3.3630  -3.2361  -3.2118  -3.1443
    -3.0867  -2.9875  -2.8283  -2.7013  -2.6283  -2.5665  -2.4632  -2.3988
    -2.3371  -2.3056  -2.2047  -2.1564  -2.1267  -2.0378  -2.0033  -1.9531
    -1.9194  -1.9009  -1.8822  -1.8536  -1.8094  -1.7923  -1.6890  -1.6699
    -1.5901  -1.5621  -1.3929  -1.3192  -1.2520  -1.2177  -1.1553  -0.8329
     0.4819   0.5541   0.7271   1.6714   1.8041   2.2651   3.3077   3.3646
     3.7157   4.3341   4.8348   5.6006   6.0857

          k = 0.2506-0.2897 0.0000 ( 24092 PWs)   bands (ev):

   -46.5216  -4.3215  -4.0484  -3.9334  -3.8524  -3.7739  -3.7202  -3.6948
    -3.6450  -3.5396  -3.4832  -3.3886  -3.3653  -3.2616  -3.1977  -3.1170
    -3.1027  -3.0103  -2.8215  -2.7883  -2.6884  -2.5746  -2.4960  -2.4071
    -2.3642  -2.2821  -2.2015  -2.1705  -2.1282  -2.0241  -2.0060  -1.9559
    -1.9358  -1.8975  -1.8327  -1.8093  -1.7858  -1.7642  -1.7299  -1.6561
    -1.6204  -1.6036  -1.4958  -1.4496  -1.4354  -1.3283  -1.2495  -1.1361
    -0.0216   1.2570   1.5769   2.2141   2.3313   3.0239   3.4127   3.8045
     4.2541   4.9112   5.3967   5.6291   6.2252

          k = 0.3760-0.2178 0.0000 ( 24082 PWs)   bands (ev):

   -46.5216  -4.1830  -4.0668  -4.0410  -3.7806  -3.6816  -3.6767  -3.5917
    -3.5828  -3.4850  -3.4517  -3.4477  -3.3107  -3.2769  -3.1738  -3.1228
    -3.0452  -2.9712  -2.9060  -2.8064  -2.8055  -2.6185  -2.5947  -2.4898
    -2.4159  -2.3445  -2.1743  -2.1710  -2.1120  -2.0195  -2.0036  -1.9716
    -1.9046  -1.8414  -1.8027  -1.7870  -1.7663  -1.7338  -1.6779  -1.6431
    -1.6203  -1.5533  -1.4988  -1.4093  -1.3308  -1.3066  -1.1752  -1.0499
     0.2115   0.4127   1.3339   1.8111   2.7672   2.7805   3.2992   4.0323
     4.2804   5.1055   5.6341   5.7298   5.9972

          k = 0.3760-0.0734 0.0000 ( 24092 PWs)   bands (ev):

   -46.5216  -4.3215  -4.0484  -3.9334  -3.8524  -3.7739  -3.7202  -3.6948
    -3.6450  -3.5396  -3.4832  -3.3886  -3.3653  -3.2616  -3.1977  -3.1170
    -3.1027  -3.0103  -2.8215  -2.7883  -2.6884  -2.5746  -2.4960  -2.4071
    -2.3642  -2.2821  -2.2015  -2.1705  -2.1282  -2.0241  -2.0060  -1.9559
    -1.9358  -1.8975  -1.8327  -1.8093  -1.7858  -1.7642  -1.7299  -1.6561
    -1.6204  -1.6036  -1.4958  -1.4496  -1.4354  -1.3283  -1.2495  -1.1361
    -0.0216   1.2570   1.5769   2.2141   2.3313   3.0239   3.4127   3.8045
     4.2541   4.9112   5.3968   5.6291   6.2252

          k = 0.3760 0.0711 0.0000 ( 24099 PWs)   bands (ev):

   -46.5216  -4.3216  -4.0484  -3.9335  -3.8524  -3.7738  -3.7202  -3.6949
    -3.6450  -3.5396  -3.4833  -3.3887  -3.3653  -3.2617  -3.1976  -3.1171
    -3.1027  -3.0104  -2.8213  -2.7882  -2.6884  -2.5745  -2.4957  -2.4070
    -2.3641  -2.2821  -2.2016  -2.1707  -2.1282  -2.0241  -2.0059  -1.9559
    -1.9359  -1.8979  -1.8328  -1.8093  -1.7858  -1.7643  -1.7299  -1.6562
    -1.6203  -1.6036  -1.4958  -1.4495  -1.4354  -1.3283  -1.2495  -1.1360
    -0.0218   1.2565   1.5768   2.2145   2.3307   3.0231   3.4135   3.8038
     4.2531   4.9118   5.3921   5.6437   6.1280

          k = 0.3760 0.2156 0.0000 ( 24088 PWs)   bands (ev):

   -46.5216  -4.1831  -4.0668  -4.0409  -3.7807  -3.6815  -3.6767  -3.5917
    -3.5827  -3.4850  -3.4516  -3.4477  -3.3109  -3.2768  -3.1739  -3.1230
    -3.0453  -2.9712  -2.9059  -2.8065  -2.8047  -2.6182  -2.5945  -2.4898
    -2.4159  -2.3448  -2.1743  -2.1706  -2.1124  -2.0194  -2.0038  -1.9716
    -1.9046  -1.8415  -1.8029  -1.7869  -1.7664  -1.7337  -1.6779  -1.6431
    -1.6205  -1.5533  -1.4989  -1.4093  -1.3306  -1.3066  -1.1753  -1.0497
     0.2114   0.4121   1.3334   1.8104   2.7658   2.7810   3.2986   4.0303
     4.2812   5.1068   5.6329   5.7254   6.0071

          k = 0.3760-0.7957 0.0000 ( 24065 PWs)   bands (ev):

   -46.5216  -4.1211  -4.0774  -3.8832  -3.7504  -3.6777  -3.6506  -3.5778
    -3.5645  -3.5067  -3.4559  -3.4156  -3.3023  -3.2263  -3.1567  -3.0892
    -3.0508  -2.9698  -2.9088  -2.8252  -2.7663  -2.6339  -2.5620  -2.4056
    -2.3831  -2.2873  -2.2388  -2.1974  -2.1361  -2.0286  -1.9976  -1.9495
    -1.9223  -1.8783  -1.8407  -1.8170  -1.7793  -1.7548  -1.7229  -1.6871
    -1.5951  -1.4078  -1.3974  -1.3408  -1.2317  -1.1772  -1.1042  -0.6590
    -0.3124   0.5715   0.9417   1.6564   2.0426   2.4744   3.0867   3.4990
     3.9451   4.7494   5.1677   5.5226   6.2386

          k = 0.3760-0.6512 0.0000 ( 24049 PWs)   bands (ev):

   -46.5215  -4.0178  -3.9750  -3.8992  -3.8689  -3.7380  -3.6897  -3.5860
    -3.5411  -3.4748  -3.4424  -3.3624  -3.3175  -3.2574  -3.1486  -3.1209
    -3.0270  -2.9689  -2.9019  -2.7794  -2.6258  -2.5442  -2.4863  -2.4353
    -2.3152  -2.2603  -2.1924  -2.1272  -2.1021  -2.0544  -2.0192  -1.9827
    -1.9491  -1.9265  -1.8979  -1.8446  -1.8308  -1.7609  -1.6691  -1.6248
    -1.4703  -1.3858  -1.3501  -1.1746  -1.1491  -1.1164  -0.9435  -0.8259
     0.0512   0.2992   0.3409   1.3899   1.9252   2.0069   2.9788   3.2342
     3.6871   4.3193   4.5100   5.2773   6.2038

          k = 0.3760-0.5067 0.0000 ( 24032 PWs)   bands (ev):

   -46.5215  -4.0177  -3.9750  -3.8993  -3.8689  -3.7380  -3.6896  -3.5862
    -3.5408  -3.4748  -3.4426  -3.3624  -3.3175  -3.2573  -3.1484  -3.1211
    -3.0270  -2.9689  -2.9019  -2.7793  -2.6259  -2.5444  -2.4862  -2.4353
    -2.3152  -2.2602  -2.1925  -2.1271  -2.1021  -2.0544  -2.0193  -1.9826
    -1.9493  -1.9264  -1.8979  -1.8446  -1.8307  -1.7605  -1.6692  -1.6248
    -1.4703  -1.3859  -1.3500  -1.1746  -1.1492  -1.1163  -0.9440  -0.8249
     0.0509   0.3005   0.3401   1.3896   1.9257   2.0075   2.9787   3.2342
     3.6870   4.3219   4.5099   5.2724   6.2035

          k = 0.3760-0.3623 0.0000 ( 24075 PWs)   bands (ev):

   -46.5216  -4.1211  -4.0774  -3.8832  -3.7504  -3.6778  -3.6506  -3.5779
    -3.5645  -3.5066  -3.4559  -3.4159  -3.3024  -3.2264  -3.1567  -3.0891
    -3.0508  -2.9698  -2.9088  -2.8251  -2.7670  -2.6340  -2.5623  -2.4054
    -2.3831  -2.2873  -2.2388  -2.1973  -2.1363  -2.0284  -1.9977  -1.9496
    -1.9223  -1.8782  -1.8406  -1.8169  -1.7794  -1.7549  -1.7228  -1.6870
    -1.5951  -1.4078  -1.3975  -1.3408  -1.2317  -1.1772  -1.1044  -0.6588
    -0.3121   0.5719   0.9423   1.6560   2.0437   2.4754   3.0862   3.4990
     3.9472   4.7492   5.1688   5.5152   6.2341

          k =-0.5013 0.2904 0.0000 ( 24044 PWs)   bands (ev):

   -46.5215  -4.1892  -4.1321  -3.7654  -3.6767  -3.6630  -3.6294  -3.5559
    -3.4946  -3.4657  -3.3601  -3.3434  -3.2888  -3.2752  -3.2440  -3.1850
    -3.1003  -2.9553  -2.9395  -2.8124  -2.7997  -2.6747  -2.6407  -2.5238
    -2.4590  -2.4173  -2.1707  -2.1635  -2.0766  -2.0601  -2.0095  -1.9759
    -1.8792  -1.8711  -1.8510  -1.7841  -1.7698  -1.7312  -1.7262  -1.6508
    -1.5453  -1.4621  -1.4322  -1.2361  -1.1691  -1.0165  -1.0159  -0.8628
    -0.2221  -0.0500   1.1858   1.4682   2.4035   2.4941   3.2061   3.9539
     4.0395   4.9306   5.5868   5.6294   5.9329

          k =-0.5013 0.4349 0.0000 ( 24075 PWs)   bands (ev):

   -46.5216  -4.1211  -4.0774  -3.8832  -3.7504  -3.6778  -3.6506  -3.5779
    -3.5645  -3.5066  -3.4559  -3.4159  -3.3024  -3.2264  -3.1567  -3.0891
    -3.0508  -2.9698  -2.9088  -2.8251  -2.7670  -2.6340  -2.5623  -2.4054
    -2.3831  -2.2873  -2.2388  -2.1973  -2.1363  -2.0284  -1.9977  -1.9496
    -1.9223  -1.8782  -1.8406  -1.8169  -1.7794  -1.7549  -1.7228  -1.6870
    -1.5951  -1.4078  -1.3975  -1.3408  -1.2317  -1.1772  -1.1044  -0.6588
    -0.3121   0.5719   0.9423   1.6560   2.0437   2.4754   3.0862   3.4990
     3.9472   4.7492   5.1688   5.5152   6.2338

          k =-0.5013 0.5793 0.0000 ( 24068 PWs)   bands (ev):

   -46.5215  -4.0220  -3.9612  -3.9252  -3.9007  -3.8435  -3.6782  -3.6277
    -3.5774  -3.4651  -3.4091  -3.3750  -3.3630  -3.2361  -3.2118  -3.1443
    -3.0867  -2.9875  -2.8283  -2.7013  -2.6283  -2.5665  -2.4632  -2.3988
    -2.3371  -2.3056  -2.2047  -2.1564  -2.1267  -2.0378  -2.0033  -1.9531
    -1.9194  -1.9009  -1.8822  -1.8536  -1.8094  -1.7923  -1.6890  -1.6699
    -1.5901  -1.5621  -1.3929  -1.3192  -1.2520  -1.2177  -1.1553  -0.8329
     0.4819   0.5541   0.7272   1.6714   1.8041   2.2651   3.3077   3.3646
     3.7157   4.3341   4.8348   5.6006   6.0859

          k =-0.5013 0.7238 0.0000 ( 24070 PWs)   bands (ev):

   -46.5216  -4.1211  -4.0774  -3.8832  -3.7503  -3.6778  -3.6505  -3.5779
    -3.5645  -3.5066  -3.4558  -3.4158  -3.3025  -3.2264  -3.1567  -3.0893
    -3.0508  -2.9698  -2.9089  -2.8252  -2.7663  -2.6340  -2.5620  -2.4054
    -2.3832  -2.2872  -2.2388  -2.1974  -2.1360  -2.0287  -1.9977  -1.9495
    -1.9223  -1.8782  -1.8407  -1.8171  -1.7793  -1.7548  -1.7229  -1.6871
    -1.5952  -1.4079  -1.3974  -1.3407  -1.2317  -1.1772  -1.1043  -0.6590
    -0.3124   0.5714   0.9419   1.6563   2.0428   2.4747   3.0864   3.4990
     3.9449   4.7500   5.1680   5.5221   6.2351

          k =-0.5013-0.2874 0.0000 ( 24060 PWs)   bands (ev):

   -46.5215  -4.1892  -4.1321  -3.7655  -3.6768  -3.6630  -3.6293  -3.5560
    -3.4945  -3.4657  -3.3601  -3.3433  -3.2888  -3.2752  -3.2439  -3.1851
    -3.1005  -2.9554  -2.9389  -2.8124  -2.7989  -2.6748  -2.6409  -2.5239
    -2.4587  -2.4172  -2.1711  -2.1633  -2.0763  -2.0605  -2.0096  -1.9757
    -1.8793  -1.8711  -1.8510  -1.7840  -1.7700  -1.7313  -1.7260  -1.6508
    -1.5454  -1.4622  -1.4323  -1.2360  -1.1691  -1.0165  -1.0157  -0.8634
    -0.2218  -0.0509   1.1855   1.4670   2.4038   2.4924   3.2061   3.9508
     4.0402   4.9321   5.5916   5.6302   5.9336

     the Fermi energy is     1.6939 ev

!    total energy              =    -773.37282948 Ry
     estimated scf accuracy    <       0.00000010 Ry
     smearing contrib. (-TS)   =       0.00030719 Ry
     internal energy E=F+TS    =    -773.37313667 Ry

     The total energy is F=E-TS. E is the sum of the following terms:
     one-electron contribution =   -7548.82814551 Ry
     hartree contribution      =    3843.89852041 Ry
     xc contribution           =    -204.25131671 Ry
     ewald contribution        =    3136.03643178 Ry
     DFT-D3 Dispersion         =      -0.22862664 Ry

     convergence has been achieved in  11 iterations

     negative rho (up, down):  2.460E-05 0.000E+00

     Forces acting on atoms (cartesian axes, Ry/au):

     atom    1 type  2   force =     0.00072880   -0.00042272    0.01018680
     atom    2 type  2   force =     0.00140506   -0.00081494    0.01997759
     atom    3 type  2   force =    -0.00128398    0.00074320   -0.01773640
     atom    4 type  2   force =     0.00011881   -0.00006875    0.00204400
     atom    5 type  2   force =     0.00015172   -0.00008828    0.00207940
     atom    6 type  2   force =     0.00009718   -0.00005426    0.00137780
     atom    7 type  2   force =     0.00018304   -0.00010584    0.00246952
     atom    8 type  2   force =    -0.00058771    0.00034151   -0.00816822
     atom    9 type  2   force =     0.00122650   -0.00071189    0.01706639
     atom   10 type  1   force =    -0.00203943    0.00118197   -0.02929686
     The non-local contrib.  to forces
     atom    1 type  2   force =     0.00206957   -0.00119895    0.03096473
     atom    2 type  2   force =     0.00352685   -0.00204374    0.05250077
     atom    3 type  2   force =     0.00014790   -0.00008727    0.00127335
     atom    4 type  2   force =     0.00051196   -0.00029501    0.00666028
     atom    5 type  2   force =    -0.00069529    0.00040095   -0.01005301
     atom    6 type  2   force =     0.00104226   -0.00060134    0.01417195
     atom    7 type  2   force =    -0.00265497    0.00153911   -0.03670469
     atom    8 type  2   force =    -0.00275344    0.00159569   -0.03816872
     atom    9 type  2   force =    -0.01205639    0.00698186   -0.16733598
     atom   10 type  1   force =     0.00315730   -0.00182746    0.03910967
     The ionic contribution  to forces
     atom    1 type  2   force =     6.21521251   -3.60071583   86.38571996
     atom    2 type  2   force =     7.69818538   -4.45990069  107.06065211
     atom    3 type  2   force =     1.79140307   -1.03787712   24.88949394
     atom    4 type  2   force =     4.29535741   -2.48849603   59.64741803
     atom    5 type  2   force =    -2.41497785    1.39911067  -33.55022834
     atom    6 type  2   force =    -0.29459554    0.17067419   -4.09213397
     atom    7 type  2   force =    -6.68854635    3.87497301  -92.92024893
     atom    8 type  2   force =    -4.72564455    2.73777552  -65.65071816
     atom    9 type  2   force =    -8.17831471    4.73806234 -113.61678239
     atom   10 type  1   force =     2.30192064   -1.33360607   31.84682775
     The local contribution  to forces
     atom    1 type  2   force =    -6.21621202    3.60129154  -86.40187883
     atom    2 type  2   force =    -7.69968930    4.46077191 -107.08399824
     atom    3 type  2   force =    -1.79282238    1.03870259  -24.90837456
     atom    4 type  2   force =    -4.29552053    2.48859210  -59.64880766
     atom    5 type  2   force =     2.41562620   -1.39948536   33.55956832
     atom    6 type  2   force =     0.29361618   -0.17010879    4.07888712
     atom    7 type  2   force =     6.69105751   -3.87642988   92.95490373
     atom    8 type  2   force =     4.72730071   -2.73873506   65.67363418
     atom    9 type  2   force =     8.19126426   -4.74556340  113.79652005
     atom   10 type  1   force =    -2.30714184    1.33663052  -31.91571553
     The core correction contribution to forces
     atom    1 type  2   force =    -0.00020810    0.00012049   -0.00299246
     atom    2 type  2   force =    -0.00038789    0.00022466   -0.00577757
     atom    3 type  2   force =     0.00014886   -0.00008610    0.00206377
     atom    4 type  2   force =    -0.00005399    0.00003137   -0.00073636
     atom    5 type  2   force =    -0.00003977    0.00002304   -0.00055523
     atom    6 type  2   force =     0.00001149   -0.00000670    0.00016165
     atom    7 type  2   force =     0.00023391   -0.00013548    0.00324945
     atom    8 type  2   force =     0.00021015   -0.00012177    0.00291915
     atom    9 type  2   force =     0.00031985   -0.00018530    0.00444534
     atom   10 type  1   force =     0.00000000    0.00000000    0.00000000
     The Hubbard contrib.    to forces
     atom    1 type  2   force =     0.00000000    0.00000000    0.00000000
     atom    2 type  2   force =     0.00000000    0.00000000    0.00000000
     atom    3 type  2   force =     0.00000000    0.00000000    0.00000000
     atom    4 type  2   force =     0.00000000    0.00000000    0.00000000
     atom    5 type  2   force =     0.00000000    0.00000000    0.00000000
     atom    6 type  2   force =     0.00000000    0.00000000    0.00000000
     atom    7 type  2   force =     0.00000000    0.00000000    0.00000000
     atom    8 type  2   force =     0.00000000    0.00000000    0.00000000
     atom    9 type  2   force =     0.00000000    0.00000000    0.00000000
     atom   10 type  1   force =     0.00000000    0.00000000    0.00000000
     The SCF correction term to forces
     atom    1 type  2   force =     0.00001448   -0.00000594    0.00019690
     atom    2 type  2   force =    -0.00003725    0.00002083   -0.00048044
     atom    3 type  2   force =     0.00000599   -0.00000644    0.00012403
     atom    4 type  2   force =     0.00002600   -0.00001872    0.00038323
     atom    5 type  2   force =    -0.00000318    0.00000191   -0.00001618
     atom    6 type  2   force =    -0.00001248    0.00000831   -0.00020465
     atom    7 type  2   force =     0.00000408   -0.00000160    0.00002876
     atom    8 type  2   force =     0.00000599   -0.00000335    0.00008200
     atom    9 type  2   force =    -0.00002657    0.00001534   -0.00034415
     atom   10 type  1   force =     0.00000168   -0.00000230    0.00005810

     DFT-D3 dispersion contribution to forces:
     atom    1 type  2   force =    -0.00014886    0.00008618   -0.00184727
     atom    2 type  2   force =    -0.00019394    0.00011232   -0.00294281
     atom    3 type  2   force =    -0.00016864    0.00009777   -0.00234070
     atom    4 type  2   force =    -0.00020327    0.00011776   -0.00289729
     atom    5 type  2   force =     0.00024040   -0.00013927    0.00334008
     atom    6 type  2   force =     0.00003405   -0.00001971    0.00047192
     atom    7 type  2   force =     0.00008763   -0.00005077    0.00121741
     atom    8 type  2   force =     0.00029222   -0.00016929    0.00405956
     atom    9 type  2   force =     0.00003885   -0.00002251    0.00053974
     atom   10 type  1   force =     0.00002156   -0.00001249    0.00039937

     Total force =     0.045430     Total SCF correction =     0.000780


     Computing stress (Cartesian axis) and pressure


     negative rho (up, down):  2.460E-05 0.000E+00
          total   stress  (Ry/bohr**3)                   (kbar)     P=      -21.00
  -0.00015781  -0.00000010   0.00000337          -23.22       -0.01        0.50
  -0.00000010  -0.00015793  -0.00000195           -0.01      -23.23       -0.29
   0.00000337  -0.00000195  -0.00011258            0.50       -0.29      -16.56


     BFGS Geometry Optimization
     Energy error            =      0.0E+00 Ry
     Gradient error          =      2.9E-02 Ry/Bohr

     number of scf cycles    =   1
     number of bfgs steps    =   0

     energy             new  =    -773.3728294786 Ry

     new trust radius        =       0.0293915374 bohr
     new conv_thr            =       0.0000010000 Ry


ATOMIC_POSITIONS (angstrom)
Ag            4.4969949767        3.2576979230       16.3829668816
Ag            4.5471255272        0.5226443798       17.0796879246
Ag            4.3514845362        0.6360017246       14.3613753473
Ag            2.0953696604        1.9430626856       15.6312229031
Ag            1.8837323584        2.0656807213       12.6907994758
Ag            4.2917126761        3.3766411330       13.5309591741
Ag            4.0860487798        3.4957904207       10.6737315881
Ag            4.1461436624        0.7549657460       11.5086333128
Ag            1.6785917816        2.1845273007        9.8409249495
Li            2.3284781308        1.8080069326       19.0536130096



     Writing config-only to output data dir ./Ag_mp-2646971_111_bridge_0/Ag_mp-2646971_111_bridge_0.save/
     NEW-OLD atomic charge density approx. for the potential

     negative rho (up, down):  2.512E-05 0.000E+00

     total cpu time spent up to now is       26.4 secs

     per-process dynamical memory:   197.3 Mb

     Self-consistent Calculation

     iteration #  1     ecut=    55.00 Ry     beta= 0.30
     Davidson diagonalization with overlap
     ethr =  1.00E-06,  avg # of iterations =  5.9

     Threshold (ethr) on eigenvalues was too large:
     Diagonalizing with lowered threshold

     Davidson diagonalization with overlap
     ethr =  7.40E-08,  avg # of iterations =  3.9

     negative rho (up, down):  2.480E-05 0.000E+00

     total cpu time spent up to now is       29.9 secs

     total energy              =    -773.37479929 Ry
     estimated scf accuracy    <       0.00008362 Ry

     iteration #  2     ecut=    55.00 Ry     beta= 0.30
     Davidson diagonalization with overlap
     ethr =  8.20E-08,  avg # of iterations =  2.5

     negative rho (up, down):  3.201E-05 0.000E+00

     total cpu time spent up to now is       31.0 secs

     total energy              =    -773.37474093 Ry
     estimated scf accuracy    <       0.00200779 Ry

     iteration #  3     ecut=    55.00 Ry     beta= 0.30
     Davidson diagonalization with overlap
     ethr =  8.20E-08,  avg # of iterations =  2.1

     negative rho (up, down):  3.362E-05 0.000E+00

     total cpu time spent up to now is       32.0 secs

     total energy              =    -773.37482700 Ry
     estimated scf accuracy    <       0.00002001 Ry

     iteration #  4     ecut=    55.00 Ry     beta= 0.30
     Davidson diagonalization with overlap
     ethr =  1.96E-08,  avg # of iterations =  2.1

     negative rho (up, down):  3.011E-05 0.000E+00

     total cpu time spent up to now is       33.0 secs

     total energy              =    -773.37482906 Ry
     estimated scf accuracy    <       0.00000886 Ry

     iteration #  5     ecut=    55.00 Ry     beta= 0.30
     Davidson diagonalization with overlap
     ethr =  8.69E-09,  avg # of iterations =  1.7

     negative rho (up, down):  2.469E-05 0.000E+00

     total cpu time spent up to now is       34.0 secs

     End of self-consistent calculation

          k = 0.0000 0.0000 0.0000 ( 24179 PWs)   bands (ev):

   -46.5005  -5.2495  -4.2189  -4.1150  -4.1150  -3.6326  -3.6325  -3.5881
    -3.4307  -3.4307  -3.4167  -3.3738  -3.3738  -3.2269  -3.1887  -3.1886
    -3.1204  -3.1204  -3.0359  -3.0359  -2.9545  -2.8668  -2.8665  -2.6871
    -2.6272  -2.5745  -2.5745  -2.1370  -1.9974  -1.9044  -1.9031  -1.8376
    -1.8372  -1.8173  -1.8173  -1.7388  -1.7387  -1.7064  -1.7063  -1.6458
    -1.6457  -1.5702  -1.5702  -1.4299  -1.3392  -1.3390  -1.1598  -1.1598
    -0.7595   0.7236   2.1897   3.5529   4.5944   5.3449   5.4091   6.3643
     6.3784   6.5548   6.5578   6.6839   6.8219

          k = 0.0000 0.1445 0.0000 ( 24156 PWs)   bands (ev):

   -46.5005  -5.0949  -4.1670  -4.0529  -4.0528  -3.7143  -3.6509  -3.6000
    -3.5838  -3.5032  -3.4629  -3.3885  -3.3313  -3.3232  -3.2501  -3.0928
    -3.0766  -3.0421  -2.9995  -2.9226  -2.8593  -2.8009  -2.7718  -2.6134
    -2.5500  -2.5041  -2.4939  -2.1235  -1.9977  -1.9722  -1.9339  -1.8784
    -1.8704  -1.8143  -1.7760  -1.7538  -1.7373  -1.7280  -1.7082  -1.6835
    -1.6726  -1.5867  -1.5865  -1.4608  -1.4005  -1.3499  -1.2282  -1.1366
    -0.6848   0.8362   2.3095   3.6717   4.2693   4.7286   5.0058   5.1040
     5.4661   5.5499   5.9334   6.1592   6.2184

          k = 0.0000 0.2889 0.0000 ( 24139 PWs)   bands (ev):

   -46.5005  -4.6656  -4.0864  -3.9148  -3.8789  -3.8521  -3.7755  -3.6768
    -3.6087  -3.5305  -3.4761  -3.4148  -3.3537  -3.3189  -3.1797  -3.1228
    -3.0935  -2.9493  -2.8946  -2.8784  -2.7988  -2.6288  -2.6149  -2.4871
    -2.3848  -2.3665  -2.2134  -2.1290  -2.1182  -2.0139  -1.9556  -1.9260
    -1.8780  -1.8701  -1.8514  -1.8054  -1.7650  -1.7554  -1.6857  -1.6767
    -1.6643  -1.5939  -1.5850  -1.5416  -1.4428  -1.3862  -1.3510  -1.0922
    -0.4027   1.1928   2.1706   2.6584   3.1145   3.7266   3.9856   4.4442
     4.9453   5.1449   5.7435   5.8246   5.8889

          k = 0.0000 0.4334 0.0000 ( 24088 PWs)   bands (ev):

   -46.5004  -4.1795  -4.0645  -4.0400  -3.7762  -3.6792  -3.6752  -3.5948
    -3.5820  -3.4882  -3.4517  -3.4469  -3.3132  -3.2815  -3.1742  -3.1263
    -3.0468  -2.9760  -2.9135  -2.8098  -2.8000  -2.6179  -2.5978  -2.4959
    -2.4206  -2.3475  -2.1801  -2.1784  -2.1175  -2.0221  -2.0023  -1.9772
    -1.9106  -1.8457  -1.8081  -1.7889  -1.7704  -1.7380  -1.6809  -1.6477
    -1.6232  -1.5544  -1.5033  -1.4131  -1.3336  -1.3120  -1.1801  -1.0534
     0.2038   0.4079   1.3285   1.8120   2.7569   2.7781   3.3130   4.0438
     4.2725   5.1200   5.6361   5.7339   6.0199

          k = 0.0000-0.5778 0.0000 ( 24060 PWs)   bands (ev):

   -46.5004  -4.1869  -4.1304  -3.7635  -3.6732  -3.6610  -3.6192  -3.5560
    -3.4923  -3.4681  -3.3588  -3.3493  -3.2918  -3.2782  -3.2487  -3.1908
    -3.1105  -2.9528  -2.9427  -2.8159  -2.7932  -2.6794  -2.6423  -2.5314
    -2.4606  -2.4219  -2.1764  -2.1731  -2.0799  -2.0618  -2.0155  -1.9759
    -1.8848  -1.8737  -1.8543  -1.7860  -1.7751  -1.7367  -1.7300  -1.6553
    -1.5459  -1.4685  -1.4351  -1.2396  -1.1740  -1.0204  -1.0199  -0.8645
    -0.2280  -0.0538   1.1747   1.4572   2.4011   2.4936   3.2167   3.9689
     4.0315   4.9499   5.6024   5.6328   5.9288

          k = 0.1253-0.0726 0.0000 ( 24146 PWs)   bands (ev):

   -46.5005  -5.0949  -4.1671  -4.0529  -4.0527  -3.7143  -3.6509  -3.6001
    -3.5838  -3.5031  -3.4630  -3.3885  -3.3310  -3.3233  -3.2500  -3.0927
    -3.0766  -3.0423  -2.9995  -2.9228  -2.8591  -2.8014  -2.7718  -2.6133
    -2.5499  -2.5041  -2.4939  -2.1235  -1.9976  -1.9722  -1.9334  -1.8792
    -1.8699  -1.8144  -1.7760  -1.7537  -1.7373  -1.7280  -1.7082  -1.6835
    -1.6726  -1.5866  -1.5865  -1.4607  -1.4005  -1.3500  -1.2282  -1.1366
    -0.6848   0.8363   2.3095   3.6717   4.2700   4.7304   5.0048   5.1053
     5.4362   5.5841   5.9303   6.1596   6.2208

          k = 0.1253 0.0719 0.0000 ( 24156 PWs)   bands (ev):

   -46.5005  -5.0949  -4.1670  -4.0529  -4.0528  -3.7143  -3.6509  -3.6000
    -3.5838  -3.5032  -3.4629  -3.3885  -3.3313  -3.3232  -3.2501  -3.0928
    -3.0766  -3.0421  -2.9995  -2.9226  -2.8593  -2.8009  -2.7718  -2.6134
    -2.5500  -2.5041  -2.4939  -2.1235  -1.9977  -1.9722  -1.9339  -1.8784
    -1.8704  -1.8143  -1.7760  -1.7538  -1.7373  -1.7280  -1.7082  -1.6835
    -1.6726  -1.5867  -1.5865  -1.4608  -1.4005  -1.3499  -1.2282  -1.1366
    -0.6848   0.8362   2.3095   3.6717   4.2693   4.7286   5.0058   5.1040
     5.4661   5.5499   5.9334   6.1592   6.2184

          k = 0.1253 0.2163 0.0000 ( 24149 PWs)   bands (ev):

   -46.5005  -4.8033  -4.0892  -3.9449  -3.9379  -3.8033  -3.7449  -3.6682
    -3.6397  -3.5218  -3.4925  -3.3946  -3.3480  -3.3283  -3.2867  -3.1240
    -3.0741  -3.0307  -2.8729  -2.8065  -2.7226  -2.6917  -2.6179  -2.5346
    -2.4409  -2.3582  -2.3272  -2.1402  -2.0295  -2.0137  -1.9985  -1.9287
    -1.8963  -1.8712  -1.8483  -1.8070  -1.7630  -1.7243  -1.6898  -1.6842
    -1.6373  -1.6099  -1.5802  -1.5205  -1.4999  -1.3780  -1.2125  -1.1680
    -0.5028   1.0742   2.5499   3.1573   3.2235   3.9034   4.0954   4.2297
     4.9846   5.4229   5.4583   5.7531   5.9194

          k = 0.1253 0.3608 0.0000 ( 24102 PWs)   bands (ev):

   -46.5004  -4.3197  -4.0440  -3.9300  -3.8518  -3.7702  -3.7215  -3.6959
    -3.6464  -3.5423  -3.4838  -3.3873  -3.3657  -3.2655  -3.2010  -3.1201
    -3.1041  -3.0155  -2.8245  -2.7838  -2.6919  -2.5782  -2.5007  -2.4085
    -2.3707  -2.2873  -2.2052  -2.1746  -2.1341  -2.0272  -2.0081  -1.9625
    -1.9394  -1.9012  -1.8351  -1.8132  -1.7902  -1.7689  -1.7328  -1.6599
    -1.6239  -1.6067  -1.4972  -1.4561  -1.4381  -1.3336  -1.2535  -1.1395
    -0.0300   1.2530   1.5801   2.2095   2.3270   3.0339   3.4053   3.8005
     4.2665   4.9066   5.4036   5.6430   6.1848

          k = 0.1253-0.6505 0.0000 ( 24065 PWs)   bands (ev):

   -46.5004  -4.1180  -4.0755  -3.8819  -3.7451  -3.6757  -3.6509  -3.5733
    -3.5646  -3.5059  -3.4606  -3.4158  -3.3052  -3.2298  -3.1623  -3.0924
    -3.0527  -2.9736  -2.9108  -2.8259  -2.7675  -2.6398  -2.5652  -2.4053
    -2.3857  -2.2921  -2.2444  -2.2049  -2.1430  -2.0305  -2.0013  -1.9533
    -1.9254  -1.8830  -1.8449  -1.8219  -1.7835  -1.7585  -1.7258  -1.6891
    -1.5994  -1.4103  -1.3998  -1.3450  -1.2354  -1.1828  -1.1075  -0.6632
    -0.3155   0.5667   0.9319   1.6532   2.0354   2.4748   3.0803   3.5075
     3.9628   4.7438   5.1821   5.5407   6.2503

          k = 0.1253-0.5060 0.0000 ( 24070 PWs)   bands (ev):

   -46.5004  -4.1181  -4.0755  -3.8819  -3.7450  -3.6758  -3.6508  -3.5733
    -3.5647  -3.5059  -3.4606  -3.4160  -3.3053  -3.2298  -3.1623  -3.0925
    -3.0527  -2.9735  -2.9109  -2.8259  -2.7674  -2.6398  -2.5653  -2.4051
    -2.3857  -2.2920  -2.2444  -2.2049  -2.1429  -2.0306  -2.0015  -1.9533
    -1.9254  -1.8829  -1.8449  -1.8220  -1.7835  -1.7584  -1.7259  -1.6892
    -1.5994  -1.4104  -1.3997  -1.3449  -1.2355  -1.1828  -1.1075  -0.6631
    -0.3155   0.5667   0.9320   1.6531   2.0356   2.4751   3.0801   3.5075
     3.9627   4.7445   5.1823   5.5401   6.2468

          k = 0.1253-0.3615 0.0000 ( 24099 PWs)   bands (ev):

   -46.5004  -4.3197  -4.0440  -3.9300  -3.8517  -3.7702  -3.7215  -3.6960
    -3.6463  -3.5424  -3.4838  -3.3874  -3.3660  -3.2654  -3.2009  -3.1203
    -3.1039  -3.0156  -2.8244  -2.7843  -2.6917  -2.5782  -2.5005  -2.4084
    -2.3705  -2.2872  -2.2049  -2.1747  -2.1341  -2.0272  -2.0081  -1.9623
    -1.9394  -1.9015  -1.8351  -1.8132  -1.7902  -1.7689  -1.7328  -1.6599
    -1.6238  -1.6070  -1.4972  -1.4559  -1.4382  -1.3335  -1.2535  -1.1395
    -0.0298   1.2530   1.5804   2.2109   2.3255   3.0344   3.4065   3.7997
     4.2664   4.9072   5.4013   5.6547   6.1365

          k = 0.1253-0.2171 0.0000 ( 24155 PWs)   bands (ev):

   -46.5005  -4.8033  -4.0892  -3.9449  -3.9379  -3.8033  -3.7449  -3.6682
    -3.6397  -3.5219  -3.4924  -3.3946  -3.3476  -3.3286  -3.2868  -3.1240
    -3.0740  -3.0308  -2.8728  -2.8070  -2.7225  -2.6917  -2.6181  -2.5346
    -2.4409  -2.3582  -2.3270  -2.1402  -2.0295  -2.0136  -1.9978  -1.9286
    -1.8969  -1.8713  -1.8484  -1.8068  -1.7630  -1.7243  -1.6899  -1.6843
    -1.6372  -1.6100  -1.5802  -1.5205  -1.4998  -1.3783  -1.2125  -1.1680
    -0.5027   1.0744   2.5501   3.1577   3.2234   3.9039   4.0956   4.2304
     4.9885   5.4200   5.4550   5.7232   5.9658

          k = 0.2506-0.1452 0.0000 ( 24164 PWs)   bands (ev):

   -46.5005  -4.6656  -4.0865  -3.9147  -3.8789  -3.8522  -3.7756  -3.6769
    -3.6088  -3.5306  -3.4762  -3.4147  -3.3537  -3.3187  -3.1797  -3.1227
    -3.0935  -2.9494  -2.8945  -2.8787  -2.7995  -2.6290  -2.6148  -2.4873
    -2.3848  -2.3666  -2.2131  -2.1291  -2.1183  -2.0133  -1.9557  -1.9260
    -1.8781  -1.8701  -1.8511  -1.8057  -1.7650  -1.7555  -1.6856  -1.6768
    -1.6643  -1.5939  -1.5850  -1.5416  -1.4428  -1.3864  -1.3510  -1.0923
    -0.4026   1.1931   2.1709   2.6583   3.1158   3.7261   3.9862   4.4458
     4.9439   5.1521   5.6724   5.8198   6.0280

          k = 0.2506-0.0007 0.0000 ( 24155 PWs)   bands (ev):

   -46.5005  -4.8033  -4.0892  -3.9449  -3.9378  -3.8033  -3.7449  -3.6682
    -3.6397  -3.5219  -3.4924  -3.3946  -3.3476  -3.3286  -3.2868  -3.1240
    -3.0740  -3.0308  -2.8728  -2.8070  -2.7225  -2.6917  -2.6181  -2.5346
    -2.4409  -2.3582  -2.3270  -2.1402  -2.0295  -2.0136  -1.9978  -1.9286
    -1.8969  -1.8713  -1.8484  -1.8068  -1.7630  -1.7243  -1.6899  -1.6843
    -1.6372  -1.6100  -1.5802  -1.5205  -1.4998  -1.3783  -1.2125  -1.1680
    -0.5027   1.0744   2.5501   3.1577   3.2234   3.9039   4.0956   4.2304
     4.9885   5.4200   5.4550   5.7232   5.9658

          k = 0.2506 0.1437 0.0000 ( 24139 PWs)   bands (ev):

   -46.5005  -4.6656  -4.0864  -3.9148  -3.8789  -3.8521  -3.7755  -3.6768
    -3.6087  -3.5305  -3.4761  -3.4148  -3.3537  -3.3189  -3.1797  -3.1228
    -3.0935  -2.9493  -2.8945  -2.8784  -2.7988  -2.6288  -2.6149  -2.4871
    -2.3848  -2.3665  -2.2134  -2.1290  -2.1182  -2.0139  -1.9556  -1.9260
    -1.8780  -1.8701  -1.8514  -1.8054  -1.7650  -1.7554  -1.6857  -1.6767
    -1.6643  -1.5939  -1.5850  -1.5416  -1.4428  -1.3862  -1.3510  -1.0922
    -0.4027   1.1928   2.1706   2.6584   3.1145   3.7266   3.9856   4.4442
     4.9453   5.1449   5.7433   5.8245   5.8887

          k = 0.2506 0.2882 0.0000 ( 24102 PWs)   bands (ev):

   -46.5004  -4.3197  -4.0440  -3.9300  -3.8518  -3.7702  -3.7215  -3.6959
    -3.6464  -3.5423  -3.4838  -3.3873  -3.3657  -3.2655  -3.2010  -3.1201
    -3.1041  -3.0155  -2.8245  -2.7838  -2.6919  -2.5782  -2.5007  -2.4085
    -2.3707  -2.2873  -2.2052  -2.1746  -2.1341  -2.0272  -2.0081  -1.9625
    -1.9394  -1.9012  -1.8351  -1.8132  -1.7902  -1.7689  -1.7328  -1.6599
    -1.6239  -1.6067  -1.4972  -1.4560  -1.4381  -1.3336  -1.2535  -1.1395
    -0.0300   1.2530   1.5801   2.2095   2.3270   3.0339   3.4053   3.8005
     4.2665   4.9066   5.4036   5.6430   6.1847

          k = 0.2506-0.7231 0.0000 ( 24086 PWs)   bands (ev):

   -46.5004  -4.0164  -3.9544  -3.9258  -3.9029  -3.8441  -3.6758  -3.6260
    -3.5778  -3.4649  -3.4073  -3.3788  -3.3632  -3.2346  -3.2169  -3.1460
    -3.0946  -2.9925  -2.8247  -2.7030  -2.6371  -2.5713  -2.4645  -2.4008
    -2.3384  -2.3109  -2.2115  -2.1623  -2.1321  -2.0410  -2.0067  -1.9530
    -1.9241  -1.9060  -1.8851  -1.8586  -1.8149  -1.7964  -1.6926  -1.6735
    -1.5925  -1.5664  -1.3954  -1.3212  -1.2566  -1.2216  -1.1600  -0.8376
     0.4800   0.5501   0.7173   1.6679   1.7965   2.2667   3.2961   3.3587
     3.7302   4.3468   4.8451   5.6177   6.1088

          k = 0.2506-0.5786 0.0000 ( 24049 PWs)   bands (ev):

   -46.5003  -4.0142  -3.9706  -3.9036  -3.8642  -3.7386  -3.6860  -3.5848
    -3.5406  -3.4731  -3.4406  -3.3629  -3.3171  -3.2594  -3.1513  -3.1236
    -3.0357  -2.9766  -2.9054  -2.7805  -2.6275  -2.5507  -2.4884  -2.4343
    -2.3202  -2.2636  -2.1978  -2.1355  -2.1097  -2.0533  -2.0220  -1.9850
    -1.9517  -1.9306  -1.9022  -1.8500  -1.8361  -1.7660  -1.6718  -1.6280
    -1.4742  -1.3888  -1.3521  -1.1786  -1.1514  -1.1233  -0.9474  -0.8276
     0.0475   0.2964   0.3353   1.3837   1.9147   1.9979   2.9775   3.2315
     3.6953   4.3362   4.5188   5.2991   6.2239

          k = 0.2506-0.4341 0.0000 ( 24068 PWs)   bands (ev):

   -46.5004  -4.0163  -3.9544  -3.9257  -3.9030  -3.8442  -3.6757  -3.6261
    -3.5778  -3.4650  -3.4072  -3.3790  -3.3635  -3.2344  -3.2170  -3.1460
    -3.0946  -2.9924  -2.8247  -2.7031  -2.6370  -2.5715  -2.4646  -2.4008
    -2.3380  -2.3108  -2.2113  -2.1623  -2.1320  -2.0411  -2.0068  -1.9530
    -1.9240  -1.9060  -1.8852  -1.8586  -1.8149  -1.7964  -1.6923  -1.6733
    -1.5928  -1.5662  -1.3955  -1.3211  -1.2566  -1.2215  -1.1600  -0.8374
     0.4795   0.5506   0.7179   1.6667   1.7978   2.2676   3.2974   3.3571
     3.7304   4.3482   4.8449   5.6163   6.1043

          k = 0.2506-0.2897 0.0000 ( 24092 PWs)   bands (ev):

   -46.5004  -4.3197  -4.0440  -3.9300  -3.8517  -3.7702  -3.7215  -3.6960
    -3.6464  -3.5424  -3.4838  -3.3873  -3.3660  -3.2653  -3.2011  -3.1201
    -3.1039  -3.0155  -2.8245  -2.7843  -2.6918  -2.5783  -2.5008  -2.4086
    -2.3706  -2.2872  -2.2049  -2.1745  -2.1341  -2.0272  -2.0082  -1.9623
    -1.9393  -1.9011  -1.8351  -1.8132  -1.7902  -1.7688  -1.7328  -1.6597
    -1.6239  -1.6070  -1.4971  -1.4560  -1.4382  -1.3335  -1.2535  -1.1395
    -0.0297   1.2535   1.5805   2.2105   2.3261   3.0352   3.4057   3.8004
     4.2674   4.9066   5.4062   5.6395   6.2367

          k = 0.3760-0.2178 0.0000 ( 24082 PWs)   bands (ev):

   -46.5004  -4.1794  -4.0645  -4.0401  -3.7761  -3.6792  -3.6753  -3.5948
    -3.5820  -3.4882  -3.4518  -3.4469  -3.3129  -3.2815  -3.1741  -3.1262
    -3.0467  -2.9761  -2.9137  -2.8098  -2.8008  -2.6182  -2.5979  -2.4959
    -2.4205  -2.3473  -2.1804  -2.1784  -2.1171  -2.0222  -2.0021  -1.9772
    -1.9106  -1.8456  -1.8079  -1.7890  -1.7703  -1.7380  -1.6809  -1.6477
    -1.6231  -1.5544  -1.5032  -1.4130  -1.3338  -1.3120  -1.1799  -1.0535
     0.2039   0.4085   1.3290   1.8127   2.7583   2.7776   3.3136   4.0457
     4.2716   5.1189   5.6370   5.7388   6.0105

          k = 0.3760-0.0734 0.0000 ( 24092 PWs)   bands (ev):

   -46.5004  -4.3197  -4.0440  -3.9300  -3.8517  -3.7702  -3.7215  -3.6960
    -3.6464  -3.5424  -3.4838  -3.3873  -3.3660  -3.2653  -3.2011  -3.1201
    -3.1039  -3.0155  -2.8245  -2.7843  -2.6918  -2.5783  -2.5008  -2.4086
    -2.3706  -2.2872  -2.2049  -2.1745  -2.1341  -2.0272  -2.0082  -1.9623
    -1.9393  -1.9011  -1.8351  -1.8132  -1.7902  -1.7688  -1.7328  -1.6597
    -1.6239  -1.6070  -1.4971  -1.4560  -1.4382  -1.3335  -1.2536  -1.1395
    -0.0297   1.2535   1.5805   2.2105   2.3260   3.0352   3.4057   3.8004
     4.2674   4.9066   5.4062   5.6395   6.2279

          k = 0.3760 0.0711 0.0000 ( 24099 PWs)   bands (ev):

   -46.5004  -4.3197  -4.0440  -3.9300  -3.8517  -3.7702  -3.7215  -3.6960
    -3.6463  -3.5424  -3.4838  -3.3874  -3.3660  -3.2654  -3.2009  -3.1203
    -3.1039  -3.0156  -2.8244  -2.7843  -2.6917  -2.5782  -2.5005  -2.4084
    -2.3705  -2.2872  -2.2049  -2.1747  -2.1341  -2.0272  -2.0081  -1.9623
    -1.9394  -1.9015  -1.8351  -1.8132  -1.7902  -1.7689  -1.7328  -1.6599
    -1.6238  -1.6070  -1.4972  -1.4559  -1.4382  -1.3335  -1.2535  -1.1395
    -0.0298   1.2530   1.5804   2.2109   2.3255   3.0344   3.4065   3.7997
     4.2664   4.9072   5.4013   5.6547   6.1357

          k = 0.3760 0.2156 0.0000 ( 24088 PWs)   bands (ev):

   -46.5004  -4.1795  -4.0645  -4.0400  -3.7762  -3.6792  -3.6752  -3.5948
    -3.5820  -3.4882  -3.4517  -3.4469  -3.3132  -3.2815  -3.1742  -3.1263
    -3.0468  -2.9760  -2.9135  -2.8098  -2.8000  -2.6179  -2.5978  -2.4959
    -2.4206  -2.3475  -2.1801  -2.1784  -2.1175  -2.0221  -2.0023  -1.9772
    -1.9106  -1.8457  -1.8081  -1.7889  -1.7704  -1.7380  -1.6809  -1.6477
    -1.6232  -1.5544  -1.5033  -1.4131  -1.3336  -1.3120  -1.1801  -1.0534
     0.2038   0.4079   1.3285   1.8120   2.7569   2.7781   3.3130   4.0438
     4.2725   5.1200   5.6361   5.7339   6.0200

          k = 0.3760-0.7957 0.0000 ( 24065 PWs)   bands (ev):

   -46.5004  -4.1180  -4.0755  -3.8819  -3.7451  -3.6757  -3.6509  -3.5733
    -3.5646  -3.5060  -3.4606  -3.4158  -3.3052  -3.2298  -3.1623  -3.0924
    -3.0527  -2.9736  -2.9108  -2.8259  -2.7675  -2.6398  -2.5652  -2.4053
    -2.3857  -2.2921  -2.2444  -2.2049  -2.1430  -2.0305  -2.0013  -1.9533
    -1.9254  -1.8830  -1.8449  -1.8219  -1.7835  -1.7585  -1.7258  -1.6891
    -1.5994  -1.4103  -1.3998  -1.3450  -1.2354  -1.1828  -1.1075  -0.6632
    -0.3155   0.5667   0.9319   1.6532   2.0354   2.4748   3.0803   3.5075
     3.9628   4.7438   5.1821   5.5407   6.2502

          k = 0.3760-0.6512 0.0000 ( 24049 PWs)   bands (ev):

   -46.5003  -4.0142  -3.9706  -3.9036  -3.8642  -3.7386  -3.6860  -3.5848
    -3.5406  -3.4731  -3.4406  -3.3629  -3.3171  -3.2594  -3.1513  -3.1236
    -3.0357  -2.9766  -2.9054  -2.7805  -2.6275  -2.5507  -2.4884  -2.4343
    -2.3202  -2.2636  -2.1978  -2.1355  -2.1097  -2.0533  -2.0220  -1.9850
    -1.9517  -1.9306  -1.9022  -1.8500  -1.8361  -1.7660  -1.6718  -1.6280
    -1.4742  -1.3888  -1.3521  -1.1786  -1.1514  -1.1233  -0.9474  -0.8276
     0.0475   0.2964   0.3353   1.3837   1.9147   1.9979   2.9775   3.2315
     3.6953   4.3362   4.5188   5.2992   6.2239

          k = 0.3760-0.5067 0.0000 ( 24032 PWs)   bands (ev):

   -46.5003  -4.0142  -3.9705  -3.9036  -3.8642  -3.7386  -3.6860  -3.5850
    -3.5404  -3.4731  -3.4409  -3.3630  -3.3172  -3.2594  -3.1512  -3.1237
    -3.0357  -2.9766  -2.9054  -2.7803  -2.6277  -2.5510  -2.4883  -2.4342
    -2.3201  -2.2635  -2.1978  -2.1354  -2.1097  -2.0533  -2.0221  -1.9849
    -1.9518  -1.9306  -1.9022  -1.8500  -1.8360  -1.7656  -1.6719  -1.6280
    -1.4742  -1.3889  -1.3521  -1.1785  -1.1514  -1.1232  -0.9479  -0.8266
     0.0472   0.2976   0.3345   1.3834   1.9151   1.9985   2.9773   3.2316
     3.6952   4.3387   4.5187   5.2944   6.2236

          k = 0.3760-0.3623 0.0000 ( 24075 PWs)   bands (ev):

   -46.5004  -4.1181  -4.0754  -3.8818  -3.7450  -3.6758  -3.6509  -3.5733
    -3.5646  -3.5059  -3.4606  -3.4161  -3.3052  -3.2298  -3.1623  -3.0924
    -3.0527  -2.9736  -2.9108  -2.8257  -2.7683  -2.6399  -2.5655  -2.4050
    -2.3856  -2.2921  -2.2444  -2.2048  -2.1432  -2.0303  -2.0014  -1.9534
    -1.9254  -1.8830  -1.8448  -1.8219  -1.7835  -1.7585  -1.7258  -1.6891
    -1.5993  -1.4103  -1.3998  -1.3450  -1.2355  -1.1829  -1.1076  -0.6630
    -0.3152   0.5672   0.9324   1.6528   2.0365   2.4758   3.0798   3.5076
     3.9649   4.7437   5.1833   5.5333   6.2455

          k =-0.5013 0.2904 0.0000 ( 24044 PWs)   bands (ev):

   -46.5003  -4.1869  -4.1304  -3.7634  -3.6731  -3.6610  -3.6193  -3.5560
    -3.4925  -3.4681  -3.3588  -3.3494  -3.2918  -3.2782  -3.2487  -3.1907
    -3.1103  -2.9527  -2.9433  -2.8159  -2.7941  -2.6793  -2.6421  -2.5313
    -2.4609  -2.4219  -2.1760  -2.1732  -2.0801  -2.0614  -2.0154  -1.9760
    -1.8847  -1.8737  -1.8543  -1.7861  -1.7750  -1.7365  -1.7301  -1.6553
    -1.5459  -1.4684  -1.4350  -1.2397  -1.1740  -1.0205  -1.0200  -0.8639
    -0.2282  -0.0529   1.1750   1.4584   2.4008   2.4953   3.2167   3.9719
     4.0307   4.9486   5.5991   5.6305   5.9280

          k =-0.5013 0.4349 0.0000 ( 24075 PWs)   bands (ev):

   -46.5004  -4.1181  -4.0754  -3.8818  -3.7450  -3.6758  -3.6509  -3.5733
    -3.5646  -3.5059  -3.4606  -3.4161  -3.3052  -3.2298  -3.1623  -3.0924
    -3.0527  -2.9736  -2.9108  -2.8257  -2.7683  -2.6399  -2.5655  -2.4050
    -2.3856  -2.2921  -2.2444  -2.2048  -2.1432  -2.0303  -2.0014  -1.9534
    -1.9254  -1.8830  -1.8448  -1.8219  -1.7835  -1.7585  -1.7258  -1.6891
    -1.5993  -1.4103  -1.3998  -1.3449  -1.2355  -1.1829  -1.1076  -0.6630
    -0.3152   0.5672   0.9324   1.6528   2.0365   2.4758   3.0798   3.5076
     3.9649   4.7437   5.1833   5.5333   6.2454

          k =-0.5013 0.5793 0.0000 ( 24068 PWs)   bands (ev):

   -46.5004  -4.0163  -3.9544  -3.9257  -3.9030  -3.8442  -3.6757  -3.6261
    -3.5778  -3.4650  -3.4072  -3.3790  -3.3635  -3.2344  -3.2170  -3.1460
    -3.0946  -2.9924  -2.8247  -2.7031  -2.6370  -2.5715  -2.4646  -2.4008
    -2.3380  -2.3108  -2.2113  -2.1623  -2.1320  -2.0411  -2.0068  -1.9530
    -1.9240  -1.9060  -1.8852  -1.8586  -1.8149  -1.7964  -1.6923  -1.6733
    -1.5928  -1.5662  -1.3955  -1.3211  -1.2566  -1.2215  -1.1600  -0.8374
     0.4795   0.5506   0.7179   1.6667   1.7978   2.2676   3.2974   3.3571
     3.7304   4.3482   4.8449   5.6163   6.1043

          k =-0.5013 0.7238 0.0000 ( 24070 PWs)   bands (ev):

   -46.5004  -4.1181  -4.0755  -3.8819  -3.7450  -3.6758  -3.6508  -3.5733
    -3.5647  -3.5059  -3.4606  -3.4160  -3.3053  -3.2298  -3.1623  -3.0925
    -3.0527  -2.9735  -2.9109  -2.8259  -2.7675  -2.6398  -2.5653  -2.4051
    -2.3857  -2.2920  -2.2444  -2.2049  -2.1429  -2.0306  -2.0015  -1.9533
    -1.9254  -1.8829  -1.8449  -1.8220  -1.7835  -1.7584  -1.7259  -1.6892
    -1.5994  -1.4104  -1.3997  -1.3449  -1.2355  -1.1828  -1.1075  -0.6631
    -0.3156   0.5667   0.9320   1.6531   2.0356   2.4751   3.0801   3.5075
     3.9627   4.7445   5.1823   5.5401   6.2468

          k =-0.5013-0.2874 0.0000 ( 24060 PWs)   bands (ev):

   -46.5004  -4.1869  -4.1304  -3.7635  -3.6732  -3.6610  -3.6192  -3.5560
    -3.4923  -3.4681  -3.3588  -3.3493  -3.2918  -3.2782  -3.2487  -3.1908
    -3.1105  -2.9528  -2.9427  -2.8159  -2.7932  -2.6794  -2.6423  -2.5314
    -2.4606  -2.4219  -2.1764  -2.1731  -2.0799  -2.0618  -2.0155  -1.9759
    -1.8848  -1.8737  -1.8543  -1.7860  -1.7751  -1.7367  -1.7300  -1.6553
    -1.5459  -1.4685  -1.4351  -1.2396  -1.1740  -1.0204  -1.0199  -0.8645
    -0.2280  -0.0538   1.1747   1.4572   2.4011   2.4936   3.2167   3.9689
     4.0315   4.9499   5.6024   5.6328   5.9288

     the Fermi energy is     1.6905 ev

!    total energy              =    -773.37483010 Ry
     estimated scf accuracy    <       0.00000090 Ry
     smearing contrib. (-TS)   =       0.00019049 Ry
     internal energy E=F+TS    =    -773.37502059 Ry

     The total energy is F=E-TS. E is the sum of the following terms:
     one-electron contribution =   -7548.72627709 Ry
     hartree contribution      =    3843.85333562 Ry
     xc contribution           =    -204.25130024 Ry
     ewald contribution        =    3135.97778436 Ry
     DFT-D3 Dispersion         =      -0.22856324 Ry

     convergence has been achieved in   5 iterations

     negative rho (up, down):  2.469E-05 0.000E+00

     Forces acting on atoms (cartesian axes, Ry/au):

     atom    1 type  2   force =     0.00071799   -0.00041693    0.01007107
     atom    2 type  2   force =     0.00121881   -0.00070741    0.01744042
     atom    3 type  2   force =    -0.00102285    0.00059191   -0.01410894
     atom    4 type  2   force =     0.00011758   -0.00006891    0.00202802
     atom    5 type  2   force =     0.00018396   -0.00010603    0.00252548
     atom    6 type  2   force =     0.00013536   -0.00007753    0.00191073
     atom    7 type  2   force =     0.00013868   -0.00008095    0.00186955
     atom    8 type  2   force =    -0.00062894    0.00036522   -0.00877067
     atom    9 type  2   force =     0.00115223   -0.00066595    0.01601483
     atom   10 type  1   force =    -0.00201283    0.00116658   -0.02898051
     The non-local contrib.  to forces
     atom    1 type  2   force =     0.00197501   -0.00114461    0.02978978
     atom    2 type  2   force =     0.00336506   -0.00195221    0.05030352
     atom    3 type  2   force =     0.00033545   -0.00019623    0.00388126
     atom    4 type  2   force =     0.00052431   -0.00030472    0.00672685
     atom    5 type  2   force =    -0.00070263    0.00040701   -0.01012842
     atom    6 type  2   force =     0.00099637   -0.00057800    0.01356307
     atom    7 type  2   force =    -0.00267125    0.00154646   -0.03688979
     atom    8 type  2   force =    -0.00273650    0.00158442   -0.03793973
     atom    9 type  2   force =    -0.01206449    0.00698987   -0.16746100
     atom   10 type  1   force =     0.00319893   -0.00185147    0.03958700
     The ionic contribution  to forces
     atom    1 type  2   force =     6.21362391   -3.59979735   86.36698982
     atom    2 type  2   force =     7.69336622   -4.45710495  106.99576556
     atom    3 type  2   force =     1.78651523   -1.03503634   24.82171856
     atom    4 type  2   force =     4.29583706   -2.48877685   59.65172548
     atom    5 type  2   force =    -2.40617823    1.39402390  -33.42795749
     atom    6 type  2   force =    -0.28477739    0.16497150   -3.95527557
     atom    7 type  2   force =    -6.69009997    3.87586917  -92.94136556
     atom    8 type  2   force =    -4.73418097    2.74271461  -65.76956031
     atom    9 type  2   force =    -8.17853764    4.73819778 -113.62015231
     atom   10 type  1   force =     2.30443177   -1.33506147   31.87811182
     The local contribution  to forces
     atom    1 type  2   force =    -6.21457287    3.60034873  -86.38254194
     atom    2 type  2   force =    -7.69493581    4.45801789 -107.02003893
     atom    3 type  2   force =    -1.78795141    1.03586780  -24.84076886
     atom    4 type  2   force =    -4.29606055    2.48890271  -59.65382567
     atom    5 type  2   force =     2.40690237   -1.39444332   33.43835139
     atom    6 type  2   force =     0.28385012   -0.16443395    3.94271783
     atom    7 type  2   force =     6.69273131   -3.87739343   92.97764173
     atom    8 type  2   force =     4.73588774   -2.74370222   65.79318451
     atom    9 type  2   force =     8.19154579   -4.74573522  113.80075473
     atom   10 type  1   force =    -2.30966364    1.33809144  -31.94704395
     The core correction contribution to forces
     atom    1 type  2   force =    -0.00020130    0.00011666   -0.00290654
     atom    2 type  2   force =    -0.00035897    0.00020809   -0.00538908
     atom    3 type  2   force =     0.00011546   -0.00006697    0.00160234
     atom    4 type  2   force =    -0.00005296    0.00003054   -0.00071692
     atom    5 type  2   force =    -0.00004399    0.00002547   -0.00061368
     atom    6 type  2   force =     0.00000786   -0.00000452    0.00011020
     atom    7 type  2   force =     0.00023627   -0.00013685    0.00328006
     atom    8 type  2   force =     0.00021139   -0.00012243    0.00293712
     atom    9 type  2   force =     0.00033068   -0.00019164    0.00459838
     atom   10 type  1   force =     0.00000000    0.00000000    0.00000000
     The Hubbard contrib.    to forces
     atom    1 type  2   force =     0.00000000    0.00000000    0.00000000
     atom    2 type  2   force =     0.00000000    0.00000000    0.00000000
     atom    3 type  2   force =     0.00000000    0.00000000    0.00000000
     atom    4 type  2   force =     0.00000000    0.00000000    0.00000000
     atom    5 type  2   force =     0.00000000    0.00000000    0.00000000
     atom    6 type  2   force =     0.00000000    0.00000000    0.00000000
     atom    7 type  2   force =     0.00000000    0.00000000    0.00000000
     atom    8 type  2   force =     0.00000000    0.00000000    0.00000000
     atom    9 type  2   force =     0.00000000    0.00000000    0.00000000
     atom   10 type  1   force =     0.00000000    0.00000000    0.00000000
     The SCF correction term to forces
     atom    1 type  2   force =     0.00003127   -0.00002102    0.00046257
     atom    2 type  2   force =    -0.00004513    0.00002310   -0.00053979
     atom    3 type  2   force =     0.00013186   -0.00007532    0.00182035
     atom    4 type  2   force =     0.00006323   -0.00003346    0.00088855
     atom    5 type  2   force =    -0.00004323    0.00002481   -0.00058427
     atom    6 type  2   force =     0.00001507   -0.00000824    0.00020494
     atom    7 type  2   force =    -0.00015577    0.00008978   -0.00214882
     atom    8 type  2   force =    -0.00010914    0.00006305   -0.00152939
     atom    9 type  2   force =    -0.00017682    0.00010421   -0.00247487
     atom   10 type  1   force =    -0.00000879    0.00000409   -0.00014559

     DFT-D3 dispersion contribution to forces:
     atom    1 type  2   force =    -0.00014801    0.00008569   -0.00185073
     atom    2 type  2   force =    -0.00018253    0.00010570   -0.00278896
     atom    3 type  2   force =    -0.00017941    0.00010400   -0.00249071
     atom    4 type  2   force =    -0.00020348    0.00011789   -0.00289837
     atom    5 type  2   force =     0.00023970   -0.00013887    0.00332984
     atom    6 type  2   force =     0.00003336   -0.00001929    0.00046216
     atom    7 type  2   force =     0.00008813   -0.00005106    0.00122383
     atom    8 type  2   force =     0.00028857   -0.00016717    0.00400903
     atom    9 type  2   force =     0.00004474   -0.00002592    0.00062179
     atom   10 type  1   force =     0.00001894   -0.00001097    0.00038210

     Total force =     0.042514     Total SCF correction =     0.004268
     SCF correction compared to forces is large: reduce conv_thr to get better values


     Computing stress (Cartesian axis) and pressure


     negative rho (up, down):  2.469E-05 0.000E+00
          total   stress  (Ry/bohr**3)                   (kbar)     P=      -20.89
  -0.00015645  -0.00000009   0.00000324          -23.01       -0.01        0.48
  -0.00000009  -0.00015655  -0.00000188           -0.01      -23.03       -0.28
   0.00000324  -0.00000188  -0.00011302            0.48       -0.28      -16.63

     Energy error            =      2.0E-03 Ry
     Gradient error          =      2.9E-02 Ry/Bohr

     number of scf cycles    =   2
     number of bfgs steps    =   1

     energy             old  =    -773.3728294786 Ry
     energy             new  =    -773.3748300978 Ry

     CASE: energy            _new < energy            _old


     WARNING: bfgs curvature condition failed, Theta= 0.858
     new trust radius        =       0.0323306911 bohr
     new conv_thr            =       0.0000002001 Ry


ATOMIC_POSITIONS (angstrom)
Ag            4.4974180611        3.2574523370       16.3888943850
Ag            4.5478765711        0.5222085776       17.0904098626
Ag            4.3508337401        0.6363783636       14.3523934585
Ag            2.0954388406        1.9430223144       15.6324150971
Ag            1.8838339124        2.0656220246       12.6921929608
Ag            4.2917845749        3.3766002281       13.5319752309
Ag            4.0861387685        3.4957380886       10.6749450984
Ag            4.1457829676        0.7551752460       11.5036087391
Ag            1.6792818859        2.1841278543        9.8505204445
Li            2.3272927673        1.8086939330       19.0365592897



     Writing config-only to output data dir ./Ag_mp-2646971_111_bridge_0/Ag_mp-2646971_111_bridge_0.save/
     NEW-OLD atomic charge density approx. for the potential

     negative rho (up, down):  2.527E-05 0.000E+00

     total cpu time spent up to now is       37.9 secs

     per-process dynamical memory:   198.9 Mb

     Self-consistent Calculation

     iteration #  1     ecut=    55.00 Ry     beta= 0.30
     Davidson diagonalization with overlap
     ethr =  1.00E-06,  avg # of iterations =  5.6

     Threshold (ethr) on eigenvalues was too large:
     Diagonalizing with lowered threshold

     Davidson diagonalization with overlap
     ethr =  9.55E-08,  avg # of iterations =  3.1

     negative rho (up, down):  2.488E-05 0.000E+00

     total cpu time spent up to now is       41.4 secs

     total energy              =    -773.37677680 Ry
     estimated scf accuracy    <       0.00010760 Ry

     iteration #  2     ecut=    55.00 Ry     beta= 0.30
     Davidson diagonalization with overlap
     ethr =  1.05E-07,  avg # of iterations =  2.8

     negative rho (up, down):  3.327E-05 0.000E+00

     total cpu time spent up to now is       42.5 secs

     total energy              =    -773.37671728 Ry
     estimated scf accuracy    <       0.00198942 Ry

     iteration #  3     ecut=    55.00 Ry     beta= 0.30
     Davidson diagonalization with overlap
     ethr =  1.05E-07,  avg # of iterations =  2.2

     negative rho (up, down):  4.117E-05 0.000E+00

     total cpu time spent up to now is       43.6 secs

     total energy              =    -773.37680867 Ry
     estimated scf accuracy    <       0.00011850 Ry

     iteration #  4     ecut=    55.00 Ry     beta= 0.30
     Davidson diagonalization with overlap
     ethr =  1.05E-07,  avg # of iterations =  1.3

     negative rho (up, down):  2.823E-05 0.000E+00

     total cpu time spent up to now is       44.6 secs

     total energy              =    -773.37681773 Ry
     estimated scf accuracy    <       0.00000370 Ry

     iteration #  5     ecut=    55.00 Ry     beta= 0.30
     Davidson diagonalization with overlap
     ethr =  3.63E-09,  avg # of iterations =  4.1

     negative rho (up, down):  2.516E-05 0.000E+00

     total cpu time spent up to now is       45.6 secs

     total energy              =    -773.37681844 Ry
     estimated scf accuracy    <       0.00000058 Ry

[...]
    -0.2255   0.9637   1.7451   1.8847   2.0026   3.0328   3.2748   3.8389
     4.6884   4.8324   5.7426   6.0010   6.4388

          k = 0.3760-0.2178 0.0000 ( 24082 PWs)   bands (ev):

   -45.5652  -4.4692  -4.4101  -4.3191  -4.1336  -4.0690  -4.0371  -3.9526
    -3.8959  -3.8770  -3.7561  -3.7175  -3.6713  -3.5740  -3.5244  -3.4391
    -3.4360  -3.2813  -3.1968  -3.1469  -3.1067  -2.9869  -2.9735  -2.7696
    -2.7467  -2.6685  -2.5475  -2.5229  -2.4722  -2.4577  -2.3098  -2.2730
    -2.1779  -2.1693  -2.0791  -2.0518  -2.0357  -1.9539  -1.9130  -1.8807
    -1.8050  -1.7874  -1.6664  -1.5993  -1.4991  -1.4955  -1.4028  -1.3074
     0.0029   0.1290   1.0124   1.9970   2.3786   2.4926   3.7981   3.8409
     4.4822   5.3957   5.6532   5.7996   6.0280

          k = 0.3760-0.0734 0.0000 ( 24092 PWs)   bands (ev):

   -45.5653  -4.6448  -4.3736  -4.2621  -4.2217  -4.0882  -4.0307  -4.0000
    -3.9741  -3.8971  -3.8333  -3.7600  -3.6688  -3.5551  -3.4961  -3.4490
    -3.4173  -3.3071  -3.1436  -3.1288  -3.0347  -2.9459  -2.8294  -2.8078
    -2.7024  -2.6377  -2.5750  -2.5174  -2.4670  -2.4036  -2.3641  -2.3233
    -2.2272  -2.1917  -2.1279  -2.0655  -2.0157  -1.9641  -1.9307  -1.9108
    -1.8512  -1.7596  -1.7018  -1.6727  -1.6216  -1.5213  -1.4630  -1.3753
    -0.2255   0.9637   1.7451   1.8847   2.0026   3.0328   3.2748   3.8389
     4.6884   4.8324   5.7426   6.0010   6.4388

          k = 0.3760 0.0711 0.0000 ( 24099 PWs)   bands (ev):

   -45.5653  -4.6447  -4.3735  -4.2622  -4.2218  -4.0884  -4.0309  -4.0003
    -3.9737  -3.8972  -3.8336  -3.7599  -3.6690  -3.5552  -3.4961  -3.4487
    -3.4173  -3.3073  -3.1438  -3.1286  -3.0349  -2.9458  -2.8294  -2.8079
    -2.7019  -2.6379  -2.5752  -2.5170  -2.4674  -2.4028  -2.3639  -2.3235
    -2.2271  -2.1915  -2.1278  -2.0652  -2.0155  -1.9643  -1.9308  -1.9107
    -1.8515  -1.7597  -1.7017  -1.6727  -1.6218  -1.5213  -1.4631  -1.3754
    -0.2256   0.9635   1.7448   1.8850   2.0027   3.0328   3.2749   3.8387
     4.6884   4.8323   5.7312   6.0349   6.3603

          k = 0.3760 0.2156 0.0000 ( 24088 PWs)   bands (ev):

   -45.5653  -4.4689  -4.4102  -4.3192  -4.1334  -4.0697  -4.0371  -3.9527
    -3.8962  -3.8772  -3.7562  -3.7175  -3.6717  -3.5738  -3.5242  -3.4394
    -3.4362  -3.2816  -3.1969  -3.1469  -3.1068  -2.9866  -2.9736  -2.7695
    -2.7460  -2.6681  -2.5473  -2.5231  -2.4719  -2.4571  -2.3096  -2.2727
    -2.1778  -2.1689  -2.0786  -2.0519  -2.0357  -1.9540  -1.9131  -1.8809
    -1.8056  -1.7874  -1.6662  -1.5995  -1.4994  -1.4954  -1.4028  -1.3076
     0.0027   0.1288   1.0123   1.9972   2.3786   2.4921   3.7981   3.8405
     4.4818   5.3954   5.6535   5.7996   6.0271

          k = 0.3760-0.7957 0.0000 ( 24065 PWs)   bands (ev):

   -45.5652  -4.4589  -4.3756  -4.1950  -4.1095  -4.0677  -3.9715  -3.9309
    -3.8778  -3.8186  -3.7777  -3.7346  -3.6481  -3.5975  -3.5614  -3.5276
    -3.3799  -3.2808  -3.1792  -3.0801  -3.0516  -2.9950  -2.9031  -2.8216
    -2.7360  -2.6855  -2.5864  -2.5501  -2.4407  -2.4016  -2.3411  -2.2837
    -2.1831  -2.1551  -2.1008  -2.0435  -1.9962  -1.9323  -1.8617  -1.7957
    -1.7174  -1.6581  -1.6414  -1.5842  -1.4580  -1.3907  -1.3127  -0.9564
    -0.5823   0.2956   0.5820   1.2756   1.8344   2.6031   2.6935   3.8741
     4.3156   4.6074   5.8381   6.2128   6.4313

          k = 0.3760-0.6512 0.0000 ( 24049 PWs)   bands (ev):

   -45.5652  -4.4897  -4.3050  -4.1878  -4.1068  -4.0706  -4.0417  -3.9422
    -3.8054  -3.7986  -3.7629  -3.7246  -3.6732  -3.5948  -3.5501  -3.5027
    -3.3870  -3.2804  -3.2664  -3.1236  -3.0554  -2.8762  -2.8477  -2.7029
    -2.6890  -2.6629  -2.6081  -2.4762  -2.4642  -2.3561  -2.2865  -2.2696
    -2.1762  -2.1015  -2.0848  -2.0297  -1.9497  -1.8891  -1.8338  -1.8179
    -1.7060  -1.5564  -1.5039  -1.4286  -1.3624  -1.3531  -1.2843  -1.0570
    -0.3204  -0.0791   0.0277   1.0316   1.4251   1.7542   2.8547   3.4228
     3.9579   4.6624   4.9653   6.2630   7.0136

          k = 0.3760-0.5067 0.0000 ( 24032 PWs)   bands (ev):

   -45.5652  -4.4896  -4.3051  -4.1879  -4.1067  -4.0706  -4.0416  -3.9422
    -3.8054  -3.7984  -3.7626  -3.7244  -3.6734  -3.5948  -3.5503  -3.5026
    -3.3869  -3.2802  -3.2665  -3.1240  -3.0553  -2.8764  -2.8475  -2.7026
    -2.6890  -2.6625  -2.6088  -2.4761  -2.4641  -2.3564  -2.2860  -2.2697
    -2.1763  -2.1019  -2.0846  -2.0300  -1.9500  -1.8887  -1.8339  -1.8179
    -1.7062  -1.5564  -1.5040  -1.4283  -1.3623  -1.3533  -1.2841  -1.0569
    -0.3203  -0.0790   0.0277   1.0316   1.4251   1.7543   2.8547   3.4230
     3.9581   4.6628   4.9653   6.2627   7.0136

          k = 0.3760-0.3623 0.0000 ( 24075 PWs)   bands (ev):

   -45.5652  -4.4587  -4.3759  -4.1953  -4.1090  -4.0679  -3.9714  -3.9310
    -3.8774  -3.8182  -3.7778  -3.7344  -3.6478  -3.5971  -3.5616  -3.5278
    -3.3799  -3.2807  -3.1787  -3.0807  -3.0515  -2.9949  -2.9034  -2.8219
    -2.7359  -2.6861  -2.5862  -2.5498  -2.4415  -2.4018  -2.3411  -2.2841
    -2.1837  -2.1552  -2.1014  -2.0434  -1.9961  -1.9323  -1.8621  -1.7956
    -1.7176  -1.6578  -1.6413  -1.5839  -1.4577  -1.3911  -1.3126  -0.9563
    -0.5819   0.2956   0.5822   1.2756   1.8342   2.6031   2.6940   3.8746
     4.3158   4.6076   5.8383   6.2149   6.4313

          k =-0.5013 0.2904 0.0000 ( 24044 PWs)   bands (ev):

   -45.5652  -4.4860  -4.4276  -4.0928  -4.0553  -3.9953  -3.9229  -3.8637
    -3.8183  -3.8153  -3.7610  -3.7552  -3.7092  -3.7034  -3.6591  -3.4203
    -3.3365  -3.2790  -3.2090  -3.1915  -3.0934  -3.0095  -2.9794  -2.8739
    -2.8365  -2.6127  -2.5841  -2.4910  -2.4906  -2.4008  -2.3263  -2.2324
    -2.1792  -2.1585  -2.1457  -2.0665  -2.0359  -1.9352  -1.9337  -1.7830
    -1.7326  -1.6277  -1.6126  -1.4053  -1.3916  -1.3648  -1.2441  -1.0195
    -0.6108  -0.2686   0.8007   1.2698   1.9784   2.7239   3.5296   3.5627
     4.4108   5.3824   5.6228   5.7669   5.9300

          k =-0.5013 0.4349 0.0000 ( 24075 PWs)   bands (ev):

   -45.5652  -4.4587  -4.3759  -4.1953  -4.1090  -4.0679  -3.9714  -3.9310
    -3.8774  -3.8182  -3.7777  -3.7344  -3.6478  -3.5971  -3.5616  -3.5278
    -3.3799  -3.2807  -3.1786  -3.0807  -3.0515  -2.9949  -2.9034  -2.8219
    -2.7359  -2.6861  -2.5862  -2.5498  -2.4415  -2.4018  -2.3411  -2.2840
    -2.1837  -2.1552  -2.1014  -2.0434  -1.9961  -1.9323  -1.8621  -1.7956
    -1.7176  -1.6578  -1.6413  -1.5839  -1.4577  -1.3911  -1.3126  -0.9563
    -0.5819   0.2956   0.5822   1.2756   1.8342   2.6031   2.6940   3.8746
     4.3158   4.6076   5.8383   6.2149   6.4313

          k =-0.5013 0.5793 0.0000 ( 24068 PWs)   bands (ev):

   -45.5652  -4.4532  -4.2672  -4.2630  -4.1853  -4.1202  -4.0667  -3.9225
    -3.8700  -3.8258  -3.7791  -3.7400  -3.6754  -3.5847  -3.5254  -3.5022
    -3.3782  -3.2931  -3.1915  -3.0940  -3.0340  -2.8938  -2.8552  -2.7674
    -2.7258  -2.7006  -2.5785  -2.4636  -2.4239  -2.3699  -2.3429  -2.2622
    -2.1785  -2.1161  -2.0891  -2.0152  -2.0018  -1.9540  -1.9084  -1.8263
    -1.7907  -1.7282  -1.6282  -1.5842  -1.4952  -1.3859  -1.3670  -1.1362
     0.1873   0.2104   0.4192   1.3429   1.3921   2.4896   2.9344   3.1280
     4.2031   4.8607   5.1845   6.2146   6.6952

          k =-0.5013 0.7238 0.0000 ( 24070 PWs)   bands (ev):

   -45.5652  -4.4589  -4.3756  -4.1951  -4.1094  -4.0678  -3.9716  -3.9307
    -3.8778  -3.8185  -3.7779  -3.7344  -3.6477  -3.5973  -3.5618  -3.5279
    -3.3798  -3.2812  -3.1790  -3.0801  -3.0513  -2.9948  -2.9031  -2.8219
    -2.7358  -2.6860  -2.5863  -2.5498  -2.4412  -2.4015  -2.3412  -2.2837
    -2.1827  -2.1552  -2.1009  -2.0435  -1.9962  -1.9321  -1.8620  -1.7957
    -1.7177  -1.6581  -1.6415  -1.5840  -1.4577  -1.3907  -1.3127  -0.9565
    -0.5823   0.2957   0.5821   1.2757   1.8343   2.6030   2.6937   3.8743
     4.3153   4.6076   5.8382   6.2123   6.4313

          k =-0.5013-0.2874 0.0000 ( 24060 PWs)   bands (ev):

   -45.5652  -4.4862  -4.4273  -4.0925  -4.0553  -3.9956  -3.9231  -3.8642
    -3.8184  -3.8158  -3.7611  -3.7554  -3.7090  -3.7031  -3.6596  -3.4210
    -3.3362  -3.2795  -3.2085  -3.1918  -3.0934  -3.0093  -2.9795  -2.8741
    -2.8359  -2.6123  -2.5844  -2.4903  -2.4901  -2.4009  -2.3262  -2.2319
    -2.1790  -2.1579  -2.1455  -2.0666  -2.0356  -1.9348  -1.9341  -1.7831
    -1.7332  -1.6278  -1.6126  -1.4054  -1.3910  -1.3654  -1.2442  -1.0199
    -0.6111  -0.2684   0.8008   1.2697   1.9784   2.7234   3.5296   3.5622
     4.4101   5.3822   5.6227   5.7660   5.9303

     the Fermi energy is     1.4787 ev

!    total energy              =    -773.41848306 Ry
     estimated scf accuracy    <          9.5E-09 Ry
     smearing contrib. (-TS)   =       0.00125701 Ry
     internal energy E=F+TS    =    -773.41974006 Ry

     The total energy is F=E-TS. E is the sum of the following terms:
     one-electron contribution =   -7806.94105288 Ry
     hartree contribution      =    3972.06897769 Ry
     xc contribution           =    -204.44292624 Ry
     ewald contribution        =    3266.12881122 Ry
     DFT-D3 Dispersion         =      -0.23354986 Ry

     convergence has been achieved in   6 iterations

     negative rho (up, down):  3.035E-05 0.000E+00

     Forces acting on atoms (cartesian axes, Ry/au):

     atom    1 type  2   force =     0.00006002   -0.00003556    0.00043225
     atom    2 type  2   force =    -0.00006273    0.00003836   -0.00079003
     atom    3 type  2   force =     0.00000817   -0.00000388    0.00046776
     atom    4 type  2   force =     0.00001676   -0.00000955   -0.00009398
     atom    5 type  2   force =    -0.00001433    0.00000871    0.00012988
     atom    6 type  2   force =     0.00005695   -0.00003502    0.00056957
     atom    7 type  2   force =    -0.00003740    0.00002175   -0.00061542
     atom    8 type  2   force =    -0.00002682    0.00001505   -0.00020232
     atom    9 type  2   force =    -0.00005010    0.00002907   -0.00073130
     atom   10 type  1   force =     0.00004949   -0.00002895    0.00083356
     The non-local contrib.  to forces
     atom    1 type  2   force =    -0.00130174    0.00075398   -0.01921040
     atom    2 type  2   force =     0.00224917   -0.00130069    0.03043897
     atom    3 type  2   force =     0.00228979   -0.00132660    0.03309349
     atom    4 type  2   force =     0.00160456   -0.00092872    0.02110935
     atom    5 type  2   force =    -0.00242359    0.00140461   -0.03311779
     atom    6 type  2   force =     0.00031263   -0.00018384    0.00472030
     atom    7 type  2   force =    -0.00133312    0.00077264   -0.01867164
     atom    8 type  2   force =     0.00021246   -0.00012345    0.00323266
     atom    9 type  2   force =    -0.01250089    0.00724278   -0.17405240
     atom   10 type  1   force =     0.00467048   -0.00270606    0.06531500
     The ionic contribution  to forces
     atom    1 type  2   force =     6.73473669   -3.90181571   93.52433819
     atom    2 type  2   force =     7.51764804   -4.35522769  104.44538443
     atom    3 type  2   force =     1.28905424   -0.74676673   17.96407432
     atom    4 type  2   force =     4.27070030   -2.47416187   59.28440066
     atom    5 type  2   force =    -2.23577997    1.29534544  -31.06002530
     atom    6 type  2   force =     0.15483576   -0.08983317    2.15688531
     atom    7 type  2   force =    -6.52120754    3.77803550  -90.60092370
     atom    8 type  2   force =    -5.38611881    3.12039058  -74.80890693
     atom    9 type  2   force =    -8.23760946    4.77242642 -114.44629029
     atom   10 type  1   force =     2.41374075   -1.39839277   33.54106331
     The local contribution  to forces
     atom    1 type  2   force =    -6.73318682    3.90091678  -93.50216390
     atom    2 type  2   force =    -7.51945565    4.35627550 -104.46969357
     atom    3 type  2   force =    -1.29097005    0.74787777  -17.99152636
     atom    4 type  2   force =    -4.27217975    2.47501886  -59.30426062
     atom    5 type  2   force =     2.23776415   -1.29649456   31.08740751
     atom    6 type  2   force =    -0.15517891    0.09003191   -2.16218525
     atom    7 type  2   force =     6.52208211   -3.77854217   90.61313385
     atom    8 type  2   force =     5.38562773   -3.12010634   74.80204712
     atom    9 type  2   force =     8.24927660   -4.77918583  114.60870675
     atom   10 type  1   force =    -2.41822536    1.40099100  -33.60363632
     The core correction contribution to forces
     atom    1 type  2   force =    -0.00007160    0.00004167   -0.00092175
     atom    2 type  2   force =    -0.00022957    0.00013281   -0.00318491
     atom    3 type  2   force =    -0.00007192    0.00004156   -0.00108236
     atom    4 type  2   force =     0.00010126   -0.00005872    0.00149378
     atom    5 type  2   force =     0.00004389   -0.00002552    0.00056787
     atom    6 type  2   force =     0.00001986   -0.00001123    0.00026721
     atom    7 type  2   force =     0.00022195   -0.00012863    0.00309338
     atom    8 type  2   force =     0.00009969   -0.00005768    0.00135516
     atom    9 type  2   force =     0.00055839   -0.00032352    0.00776180
     atom   10 type  1   force =     0.00000000    0.00000000    0.00000000
     The Hubbard contrib.    to forces
     atom    1 type  2   force =     0.00000000    0.00000000    0.00000000
     atom    2 type  2   force =     0.00000000    0.00000000    0.00000000
     atom    3 type  2   force =     0.00000000    0.00000000    0.00000000
     atom    4 type  2   force =     0.00000000    0.00000000    0.00000000
     atom    5 type  2   force =     0.00000000    0.00000000    0.00000000
     atom    6 type  2   force =     0.00000000    0.00000000    0.00000000
     atom    7 type  2   force =     0.00000000    0.00000000    0.00000000
     atom    8 type  2   force =     0.00000000    0.00000000    0.00000000
     atom    9 type  2   force =     0.00000000    0.00000000    0.00000000
     atom   10 type  1   force =     0.00000000    0.00000000    0.00000000
     The SCF correction term to forces
     atom    1 type  2   force =     0.00000726   -0.00000393    0.00017411
     atom    2 type  2   force =     0.00000011   -0.00000057    0.00000765
     atom    3 type  2   force =     0.00000360   -0.00000209   -0.00002180
     atom    4 type  2   force =     0.00000627   -0.00000396    0.00001917
     atom    5 type  2   force =    -0.00000268    0.00000128    0.00002822
     atom    6 type  2   force =    -0.00001692    0.00001026   -0.00016631
     atom    7 type  2   force =    -0.00000070    0.00000038   -0.00000641
     atom    8 type  2   force =    -0.00000176    0.00000114   -0.00007876
     atom    9 type  2   force =     0.00000182   -0.00000119    0.00003793
     atom   10 type  1   force =     0.00000025   -0.00000014   -0.00000517

     DFT-D3 dispersion contribution to forces:
     atom    1 type  2   force =    -0.00012348    0.00007160   -0.00178144
     atom    2 type  2   force =    -0.00027455    0.00015896   -0.00374005
     atom    3 type  2   force =    -0.00029720    0.00017216   -0.00406696
     atom    4 type  2   force =    -0.00021558    0.00012482   -0.00285377
     atom    5 type  2   force =     0.00038417   -0.00022259    0.00527192
     atom    6 type  2   force =     0.00008483   -0.00004901    0.00105087
     atom    7 type  2   force =     0.00020020   -0.00011601    0.00276167
     atom    8 type  2   force =     0.00015417   -0.00008926    0.00215099
     atom    9 type  2   force =     0.00022374   -0.00012964    0.00310746
     atom   10 type  1   force =    -0.00013633    0.00007898   -0.00190069

     Total force =     0.001748     Total SCF correction =     0.000261
     SCF correction compared to forces is large: reduce conv_thr to get better values


     Computing stress (Cartesian axis) and pressure


     negative rho (up, down):  3.035E-05 0.000E+00
          total   stress  (Ry/bohr**3)                   (kbar)     P=      -11.77
  -0.00010035  -0.00000009   0.00000448          -14.76       -0.01        0.66
  -0.00000009  -0.00010046  -0.00000259           -0.01      -14.78       -0.38
   0.00000448  -0.00000259  -0.00003915            0.66       -0.38       -5.76

     Energy error            =      1.8E-05 Ry
     Gradient error          =      8.3E-04 Ry/Bohr

     bfgs converged in  33 scf cycles and  32 bfgs steps
     (criteria: energy <  1.0E-04 Ry, force <  1.0E-03 Ry/Bohr)

     End of BFGS Geometry Optimization

     Final energy             =    -773.4184830565 Ry

     File ./Ag_mp-2646971_111_bridge_0/Ag_mp-2646971_111_bridge_0.bfgs deleted, as requested
Begin final coordinates

ATOMIC_POSITIONS (angstrom)
Ag            4.5153025252        3.2470946834       16.6806958783
Ag            4.5356462356        0.5292900872       16.9631128526
Ag            4.3356662151        0.6451658541       14.1529411095
Ag            2.0943327938        1.9436605430       15.6514113790
Ag            1.8965778533        2.0582389638       12.8723798198
Ag            4.3094949366        3.3663465679       13.7877484122
Ag            4.1045751566        3.4850553442       10.9308004080
Ag            4.1327788742        0.7627092846       11.3221274155
Ag            1.7013237232        2.1713562228       10.1563499368
Li            2.2799837762        1.8361014161       18.2363473548
End final coordinates



     Writing all to output data dir ./Ag_mp-2646971_111_bridge_0/Ag_mp-2646971_111_bridge_0.save/

     init_run     :      2.74s CPU      3.81s WALL (       1 calls)
     electrons    :    327.76s CPU    353.21s WALL (      33 calls)
     update_pot   :     24.50s CPU     25.57s WALL (      32 calls)
     forces       :     20.42s CPU     21.90s WALL (      33 calls)
     force_dftd3  :      0.37s CPU      0.72s WALL (      33 calls)
     stress       :     74.70s CPU     76.43s WALL (      33 calls)
     stres_dftd3  :      0.29s CPU      0.52s WALL (      33 calls)

     Called by init_run:
     wfcinit      :      0.59s CPU      1.15s WALL (       1 calls)
     potinit      :      0.79s CPU      0.80s WALL (       1 calls)
     hinit0       :      1.19s CPU      1.63s WALL (       1 calls)

     Called by electrons:
     c_bands      :    282.36s CPU    299.52s WALL (     253 calls)
     sum_band     :     35.74s CPU     38.38s WALL (     253 calls)
     v_of_rho     :      4.16s CPU      5.45s WALL (     269 calls)
     newd         :      4.06s CPU      4.16s WALL (     269 calls)
     mix_rho      :      0.44s CPU      0.45s WALL (     253 calls)
     energy_dftd3 :      0.06s CPU      0.06s WALL (      33 calls)

     Called by c_bands:
     init_us_2    :      1.39s CPU      1.44s WALL (    5157 calls)
     init_us_2:cp :      1.38s CPU      1.44s WALL (    5157 calls)
     cegterg      :    242.30s CPU    254.06s WALL (    2277 calls)

     Called by *egterg:
     cdiaghg      :     49.24s CPU     49.62s WALL (   10816 calls)
     h_psi        :    153.44s CPU    162.50s WALL (   11266 calls)
     s_psi        :      8.32s CPU      8.41s WALL (   11266 calls)
     g_psi        :      0.48s CPU      0.48s WALL (    8980 calls)

     Called by h_psi:
     h_psi:calbec :     13.31s CPU     15.05s WALL (   11266 calls)
     vloc_psi     :    131.06s CPU    138.24s WALL (   11266 calls)
     add_vuspsi   :      8.46s CPU      8.59s WALL (   11266 calls)

     General routines
     calbec       :     22.05s CPU     24.59s WALL (   15028 calls)
     fft          :      6.65s CPU      9.10s WALL (    4305 calls)
     ffts         :      0.80s CPU      1.52s WALL (     522 calls)
     fftw         :    139.26s CPU    146.61s WALL (  916155 calls)
     interpolate  :      0.76s CPU      1.14s WALL (     269 calls)

     Parallel routines

     PWSCF        :   7m31.61s CPU   8m 4.20s WALL


   This run was terminated on:   6:33:15  24Jul2025            

=------------------------------------------------------------------------------=
   JOB DONE.
=------------------------------------------------------------------------------=
