
     Program PWSCF v.7.2 starts on 18Jul2025 at 11:25:34 

     This program is part of the open-source Quantum ESPRESSO suite
     for quantum simulation of materials; please cite
         "P. Giannozzi et al., J. Phys.:Condens. Matter 21 395502 (2009);
         "P. Giannozzi et al., J. Phys.:Condens. Matter 29 465901 (2017);
         "P. Giannozzi et al., J. Chem. Phys. 152 154105 (2020);
          URL http://www.quantum-espresso.org", 
     in publications or presentations arising from this work. More details at
     http://www.quantum-espresso.org/quote

     Parallel version (MPI & OpenMP), running on     128 processor cores
     Number of MPI processes:               128
     Threads/MPI process:                     1

     MPI processes distributed on     2 nodes
     241561 MiB available memory on the printing compute node when the environment starts

     Reading input from Ag_mp-2646971_110.in

     Current dimensions of program PWSCF are:
     Max number of different atomic species (ntypx) = 10
     Max number of k-points (npk) =  40000
     Max angular momentum in pseudopotentials (lmaxx) =  4
     Message from routine iosys:
     restart disabled: needed files not found

     K-points division:     npool     =       4
     R & G space division:  proc/nbgrp/npool/nimage =      32
     Subspace diagonalization in iterative solution of the eigenvalue problem:
     a serial algorithm will be used


     Parallelization info
     --------------------
     sticks:   dense  smooth     PW     G-vecs:    dense   smooth      PW
     Min          34      15      4                 9772     2829     490
     Max          35      16      5                 9815     2875     557
     Sum        1105     483    159               313371    91489   16791

     Using Slab Decomposition



     bravais-lattice index     =            0
     lattice parameter (alat)  =       5.4191  a.u.
     unit-cell volume          =    1658.9726 (a.u.)^3
     number of atoms/cell      =            6
     number of atomic types    =            1
     number of electrons       =        66.00
     number of Kohn-Sham states=           40
     kinetic-energy cutoff     =      55.0000  Ry
     charge density cutoff     =     500.0000  Ry
     scf convergence threshold =      1.0E-06
     mixing beta               =       0.3000
     number of iterations used =            8  plain     mixing
     energy convergence thresh.=      1.0E-04
     force convergence thresh. =      1.0E-03
     Exchange-correlation= PBE
                           (   1   4   3   4   0   0   0)
     nstep                     =          500


     celldm(1)=   5.419124  celldm(2)=   0.000000  celldm(3)=   0.000000
     celldm(4)=   0.000000  celldm(5)=   0.000000  celldm(6)=   0.000000

     crystal axes: (cart. coord. in units of alat)
               a(1) = (   1.000000   0.000000   0.000000 )  
               a(2) = (  -0.333333   0.942809   0.000000 )  
               a(3) = (   0.000000   0.000000  11.056769 )  

     reciprocal axes: (cart. coord. in units 2 pi/alat)
               b(1) = (  1.000000  0.353553 -0.000000 )  
               b(2) = (  0.000000  1.060660  0.000000 )  
               b(3) = ( -0.000000 -0.000000  0.090442 )  


     PseudoPot. # 1 for Ag read from file:
     /home/ecastro/trabajo_final/pseudos/Ag.pbe-n-rrkjus_psl.1.0.0.UPF
     MD5 check sum: 81cdf87bacf708300839c66ee23ce017
     Pseudo is Ultrasoft + core correction, Zval = 11.0
     Generated using &quot;atomic&quot; code by A. Dal Corso  v.6.2.2
     Using radial grid of 1237 points,  6 beta functions with: 
                l(1) =   0
                l(2) =   0
                l(3) =   1
                l(4) =   1
                l(5) =   2
                l(6) =   2
     Q(r) pseudized with 0 coefficients 


     atomic species   valence    mass     pseudopotential
        Ag            11.00   107.86820     Ag( 1.00)

     No symmetry found



   Cartesian axes

     site n.     atom                  positions (alat units)
         1           Ag  tau(   1) = (   0.0000000   0.7071068   7.5696262  )
         2           Ag  tau(   2) = (   0.6666667   0.2357023   6.7531296  )
         3           Ag  tau(   3) = (  -0.0000000   0.7071068   5.9366330  )
         4           Ag  tau(   4) = (   0.6666667   0.2357023   5.1201364  )
         5           Ag  tau(   5) = (   0.0000000   0.7071068   4.3036398  )
         6           Ag  tau(   6) = (   0.6666667   0.2357023   3.4871433  )

     --------------------------------------------
     DFT-D3 Dispersion Correction (no 3-body):
     --------------------------------------------
       Reference C6 values for interpolation: 

         atom   Coordination number   C6
         Ag         0.000           853.49
         Ag         0.968           537.23

       Values used:

         atom   Coordination number  R0_AB[au]  C6      C8
         Ag         5.503            3.147    537.23  47741.54
         Ag         7.499            3.147    537.23  47741.54
         Ag         7.509            3.147    537.23  47741.54
         Ag         7.509            3.147    537.23  47741.54
         Ag         7.499            3.147    537.23  47741.54
         Ag         5.503            3.147    537.23  47741.54

         Molecular C6 ( Ry / a.u.^6 ) =     19340.14


     number of k points=    34  Methfessel-Paxton smearing, width (Ry)=  0.0300
                       cart. coord. in units 2pi/alat
        k(    1) = (   0.0000000   0.0000000   0.0000000), wk =   0.0312500
        k(    2) = (   0.0000000   0.1325825   0.0000000), wk =   0.0625000
        k(    3) = (   0.0000000   0.2651650   0.0000000), wk =   0.0625000
        k(    4) = (   0.0000000   0.3977476   0.0000000), wk =   0.0625000
        k(    5) = (   0.0000000  -0.5303301   0.0000000), wk =   0.0312500
        k(    6) = (   0.1250000   0.0441942   0.0000000), wk =   0.0625000
        k(    7) = (   0.1250000   0.1767767   0.0000000), wk =   0.0625000
        k(    8) = (   0.1250000   0.3093592   0.0000000), wk =   0.0625000
        k(    9) = (   0.1250000   0.4419417   0.0000000), wk =   0.0625000
        k(   10) = (   0.1250000  -0.4861359   0.0000000), wk =   0.0625000
        k(   11) = (   0.1250000  -0.3535534   0.0000000), wk =   0.0625000
        k(   12) = (   0.1250000  -0.2209709   0.0000000), wk =   0.0625000
        k(   13) = (   0.1250000  -0.0883883   0.0000000), wk =   0.0625000
        k(   14) = (   0.2500000   0.0883883   0.0000000), wk =   0.0625000
        k(   15) = (   0.2500000   0.2209709   0.0000000), wk =   0.0625000
        k(   16) = (   0.2500000   0.3535534   0.0000000), wk =   0.0625000
        k(   17) = (   0.2500000   0.4861359   0.0000000), wk =   0.0625000
        k(   18) = (   0.2500000  -0.4419417   0.0000000), wk =   0.0625000
        k(   19) = (   0.2500000  -0.3093592   0.0000000), wk =   0.0625000
        k(   20) = (   0.2500000  -0.1767767   0.0000000), wk =   0.0625000
        k(   21) = (   0.2500000  -0.0441942   0.0000000), wk =   0.0625000
        k(   22) = (   0.3750000   0.1325825   0.0000000), wk =   0.0625000
        k(   23) = (   0.3750000   0.2651650   0.0000000), wk =   0.0625000
        k(   24) = (   0.3750000   0.3977476   0.0000000), wk =   0.0625000
        k(   25) = (   0.3750000   0.5303301   0.0000000), wk =   0.0625000
        k(   26) = (   0.3750000  -0.3977476   0.0000000), wk =   0.0625000
        k(   27) = (   0.3750000  -0.2651650   0.0000000), wk =   0.0625000
        k(   28) = (   0.3750000  -0.1325825   0.0000000), wk =   0.0625000
        k(   29) = (   0.3750000  -0.0000000   0.0000000), wk =   0.0625000
        k(   30) = (  -0.5000000  -0.1767767   0.0000000), wk =   0.0312500
        k(   31) = (  -0.5000000  -0.0441942   0.0000000), wk =   0.0625000
        k(   32) = (  -0.5000000   0.0883883   0.0000000), wk =   0.0625000
        k(   33) = (  -0.5000000   0.2209709   0.0000000), wk =   0.0625000
        k(   34) = (  -0.5000000  -0.7071068   0.0000000), wk =   0.0312500

     Dense  grid:   313371 G-vectors     FFT dimensions: (  40,  40, 432)

     Smooth grid:    91489 G-vectors     FFT dimensions: (  25,  25, 288)

     Estimated max dynamical RAM per process >      17.76 MB

     Estimated total dynamical RAM >       2.00 GB
     Cannot read rho : file not found

     Initial potential from superposition of free atoms

     starting charge      65.9976, renormalised to      66.0000

     negative rho (up, down):  3.914E-05 0.000E+00
     Message from routine qexsd_readschema :
     xml data file ./Ag_110/Ag_110.save/data-file-schema.xml not found
     Cannot read wfcs: file not found
     Starting wfcs are   54 randomized atomic wfcs

     total cpu time spent up to now is        6.7 secs

     per-process dynamical memory:   172.1 Mb

     Self-consistent Calculation

     iteration #  1     ecut=    55.00 Ry     beta= 0.30
     Davidson diagonalization with overlap
     c_bands:  2 eigenvalues not converged
     c_bands:  2 eigenvalues not converged
     c_bands:  2 eigenvalues not converged
     c_bands:  1 eigenvalues not converged
     ethr =  1.00E-05,  avg # of iterations = 17.9

     negative rho (up, down):  3.213E-05 0.000E+00

     total cpu time spent up to now is        8.3 secs

     total energy              =    -505.69385033 Ry
     estimated scf accuracy    <       0.09506519 Ry

     iteration #  2     ecut=    55.00 Ry     beta= 0.30
     Davidson diagonalization with overlap
     ethr =  1.44E-04,  avg # of iterations =  7.6

     negative rho (up, down):  3.050E-05 0.000E+00

     total cpu time spent up to now is        8.8 secs

     total energy              =    -505.65735756 Ry
     estimated scf accuracy    <       1.12787551 Ry

     iteration #  3     ecut=    55.00 Ry     beta= 0.30
     Davidson diagonalization with overlap
     ethr =  1.44E-04,  avg # of iterations =  7.1

     negative rho (up, down):  2.548E-05 0.000E+00

     total cpu time spent up to now is        9.4 secs

     total energy              =    -505.72437374 Ry
     estimated scf accuracy    <       0.01857148 Ry

     iteration #  4     ecut=    55.00 Ry     beta= 0.30
     Davidson diagonalization with overlap
     ethr =  2.81E-05,  avg # of iterations =  2.5

     negative rho (up, down):  2.057E-05 0.000E+00

     total cpu time spent up to now is        9.7 secs

     total energy              =    -505.72579417 Ry
     estimated scf accuracy    <       0.00174112 Ry

     iteration #  5     ecut=    55.00 Ry     beta= 0.30
     Davidson diagonalization with overlap
     ethr =  2.64E-06,  avg # of iterations =  8.1

     negative rho (up, down):  1.771E-05 0.000E+00

     total cpu time spent up to now is       10.3 secs

     total energy              =    -505.72588134 Ry
     estimated scf accuracy    <       0.00064673 Ry

     iteration #  6     ecut=    55.00 Ry     beta= 0.30
     Davidson diagonalization with overlap
     ethr =  9.80E-07,  avg # of iterations =  7.8

     negative rho (up, down):  1.631E-05 0.000E+00

     total cpu time spent up to now is       10.8 secs

     total energy              =    -505.72525752 Ry
     estimated scf accuracy    <       0.03693779 Ry

     iteration #  7     ecut=    55.00 Ry     beta= 0.30
     Davidson diagonalization with overlap
     ethr =  9.80E-07,  avg # of iterations =  6.6

     negative rho (up, down):  1.625E-05 0.000E+00

     total cpu time spent up to now is       11.3 secs

     total energy              =    -505.72606648 Ry
     estimated scf accuracy    <       0.00004430 Ry

     iteration #  8     ecut=    55.00 Ry     beta= 0.30
     Davidson diagonalization with overlap
     ethr =  6.71E-08,  avg # of iterations =  3.5

     negative rho (up, down):  1.526E-05 0.000E+00

     total cpu time spent up to now is       11.7 secs

     total energy              =    -505.72607647 Ry
     estimated scf accuracy    <       0.00003909 Ry

     iteration #  9     ecut=    55.00 Ry     beta= 0.30
     Davidson diagonalization with overlap
     ethr =  5.92E-08,  avg # of iterations =  1.4

     negative rho (up, down):  1.477E-05 0.000E+00

     total cpu time spent up to now is       12.0 secs

     total energy              =    -505.72607987 Ry
     estimated scf accuracy    <       0.00000223 Ry

     iteration # 10     ecut=    55.00 Ry     beta= 0.30
     Davidson diagonalization with overlap
     ethr =  3.38E-09,  avg # of iterations =  4.1

     negative rho (up, down):  1.444E-05 0.000E+00

     total cpu time spent up to now is       12.4 secs

     total energy              =    -505.72608041 Ry
     estimated scf accuracy    <       0.00000109 Ry

     iteration # 11     ecut=    55.00 Ry     beta= 0.30
     Davidson diagonalization with overlap
     ethr =  1.65E-09,  avg # of iterations =  1.8

     negative rho (up, down):  1.383E-05 0.000E+00

     total cpu time spent up to now is       12.8 secs

     End of self-consistent calculation

          k = 0.0000 0.0000 0.0000 ( 11533 PWs)   bands (ev):

    -4.4168  -3.9210  -3.2911  -3.2196  -2.9979  -2.9172  -2.6023  -2.5036
    -2.3017  -2.0987  -1.9889  -1.9381  -1.9060  -1.8344  -1.8171  -1.5551
    -1.5264  -1.0573  -0.8993  -0.8991  -0.8135  -0.7910  -0.7340  -0.7318
    -0.7049  -0.6733  -0.6610  -0.6540  -0.6223  -0.5567  -0.4604  -0.4601
    -0.1597   0.1079   0.7461   2.5001   3.2153   6.8238   6.9515   7.5835

          k = 0.0000 0.1326 0.0000 ( 11489 PWs)   bands (ev):

    -4.0651  -3.5981  -3.0240  -3.0173  -2.7803  -2.6892  -2.5239  -2.4274
    -2.2228  -2.0307  -2.0186  -2.0003  -1.9095  -1.9047  -1.7253  -1.7041
    -1.3943  -1.3135  -0.9886  -0.9384  -0.9376  -0.9254  -0.8177  -0.7988
    -0.7801  -0.6719  -0.6617  -0.6424  -0.5756  -0.5461  -0.5004  -0.4383
    -0.2085   0.2026   1.4435   3.0520   3.9637   7.0781   7.2731   7.8997

          k = 0.0000 0.2652 0.0000 ( 11469 PWs)   bands (ev):

    -3.2574  -3.0737  -2.8485  -2.7492  -2.5913  -2.5780  -2.3082  -2.2831
    -2.2201  -2.1893  -2.1141  -1.9970  -1.7013  -1.5648  -1.4807  -1.4213
    -1.2050  -1.1604  -1.0292  -0.9302  -0.9197  -0.8963  -0.8694  -0.8410
    -0.7591  -0.6591  -0.6198  -0.5873  -0.5479  -0.5092  -0.4565  -0.4345
    -0.0444   1.1015   2.5962   4.2904   5.6582   7.8444   8.2439   8.8536

          k = 0.0000 0.3977 0.0000 ( 11401 PWs)   bands (ev):

    -3.0903  -3.0761  -2.9114  -2.8609  -2.6367  -2.6049  -2.5172  -2.4723
    -2.3758  -2.3238  -2.0616  -2.0346  -1.5148  -1.4176  -1.0845  -0.9451
    -0.8547  -0.8474  -0.8029  -0.7739  -0.7043  -0.6666  -0.6281  -0.5976
    -0.5274  -0.4302  -0.3536  -0.3201  -0.2102  -0.1567   0.4696   0.5292
     1.1990   2.4596   3.9878   5.5821   6.8129   7.1210   7.8338   8.0448

          k = 0.0000-0.5303 0.0000 ( 11418 PWs)   bands (ev):

    -3.1795  -3.1795  -2.9500  -2.9500  -2.6581  -2.6581  -2.5808  -2.5808
    -2.4147  -2.4146  -2.1408  -2.1408  -1.2748  -1.2748  -0.8989  -0.8988
    -0.7932  -0.7931  -0.7867  -0.7867  -0.6523  -0.6523  -0.6018  -0.6017
    -0.3808  -0.3808  -0.1893  -0.1892   0.0906   0.0906   2.8763   2.8764
     2.9578   2.9578   3.3979   3.3979   6.2643   6.2644   7.2905   7.2906

          k = 0.1250 0.0442 0.0000 ( 11489 PWs)   bands (ev):

    -4.0651  -3.5981  -3.0240  -3.0173  -2.7803  -2.6892  -2.5239  -2.4274
    -2.2228  -2.0307  -2.0186  -2.0003  -1.9095  -1.9047  -1.7253  -1.7041
    -1.3943  -1.3135  -0.9886  -0.9384  -0.9376  -0.9254  -0.8177  -0.7988
    -0.7801  -0.6719  -0.6617  -0.6424  -0.5756  -0.5461  -0.5004  -0.4383
    -0.2085   0.2026   1.4435   3.0520   3.9637   7.0781   7.2731   7.8997

          k = 0.1250 0.1768 0.0000 ( 11509 PWs)   bands (ev):

    -3.5263  -3.1310  -2.7089  -2.5962  -2.5671  -2.5164  -2.4953  -2.3458
    -2.3202  -2.1419  -2.1148  -2.0161  -1.9629  -1.9415  -1.8791  -1.7261
    -1.4338  -1.3678  -1.0415  -1.0368  -0.9170  -0.7636  -0.7589  -0.7432
    -0.7092  -0.6999  -0.6355  -0.6260  -0.5589  -0.5567  -0.5075  -0.4981
    -0.0768   0.8982   2.2529   3.8440   5.0169   7.4962   7.8114   8.4280

          k = 0.1250 0.3094 0.0000 ( 11436 PWs)   bands (ev):

    -2.8328  -2.8093  -2.6789  -2.6161  -2.5412  -2.4581  -2.4265  -2.2604
    -2.2021  -2.1349  -2.0282  -1.8483  -1.6570  -1.6469  -1.4985  -1.4842
    -1.2719  -1.2132  -1.1870  -1.0453  -0.9670  -0.8506  -0.7012  -0.6708
    -0.6487  -0.6319  -0.5864  -0.5820  -0.5589  -0.5197  -0.1591   0.0673
     0.8316   2.0225   3.4997   5.1703   6.7656   8.4496   9.0016   9.1690

          k = 0.1250 0.4419 0.0000 ( 11400 PWs)   bands (ev):

    -2.9552  -2.9502  -2.7357  -2.7248  -2.5859  -2.5550  -2.4763  -2.4100
    -2.2908  -2.1911  -2.0409  -1.9975  -1.5078  -1.5008  -1.2189  -1.1527
    -1.0558  -0.8959  -0.8479  -0.7791  -0.7161  -0.6864  -0.6488  -0.6227
    -0.5904  -0.5684  -0.4574  -0.4123  -0.2159  -0.1988   1.4194   1.7584
     2.5235   3.6262   4.8659   5.5136   6.6155   6.9246   7.4932   8.1296

          k = 0.1250-0.4861 0.0000 ( 11392 PWs)   bands (ev):

    -3.0021  -2.9947  -2.7737  -2.7666  -2.5337  -2.5331  -2.4274  -2.4156
    -2.2504  -2.2365  -2.1146  -2.0709  -1.6978  -1.5500  -1.2992  -1.1872
    -0.9472  -0.9376  -0.8400  -0.8290  -0.8025  -0.7467  -0.6980  -0.6949
    -0.6378  -0.5577  -0.1724  -0.1641   0.0553   0.0987   2.6207   2.8081
     3.2767   3.9342   4.2758   4.3449   6.4465   6.5738   7.3524   7.8416

          k = 0.1250-0.3536 0.0000 ( 11413 PWs)   bands (ev):

    -2.8411  -2.8400  -2.6641  -2.6444  -2.3761  -2.3672  -2.3356  -2.2365
    -2.2172  -2.1932  -2.0963  -2.0286  -1.8876  -1.8859  -1.5854  -1.5206
    -1.1733  -1.1663  -0.9487  -0.9132  -0.8410  -0.8094  -0.7459  -0.7161
    -0.6082  -0.5881  -0.3559  -0.2672  -0.1860  -0.1319   0.3954   0.5608
     1.1495   2.2869   3.8045   5.5488   7.2803   7.9577   8.5631   8.9094

          k = 0.1250-0.2210 0.0000 ( 11482 PWs)   bands (ev):

    -3.2746  -2.9423  -2.6337  -2.6120  -2.4027  -2.3641  -2.1468  -2.1318
    -2.0526  -2.0432  -1.9910  -1.9309  -1.9201  -1.7556  -1.6533  -1.6267
    -1.4305  -1.3606  -1.1884  -1.1840  -1.0827  -1.0539  -0.9854  -0.9406
    -0.8798  -0.8520  -0.7228  -0.7194  -0.5372  -0.4883  -0.3104  -0.1561
    -0.0321   0.9222   2.3766   4.0991   5.3826   7.7639   8.1330   8.7467

          k = 0.1250-0.0884 0.0000 ( 11507 PWs)   bands (ev):

    -3.9460  -3.4685  -2.9597  -2.9196  -2.6719  -2.5752  -2.3049  -2.2164
    -2.0318  -1.9379  -1.8788  -1.8633  -1.8019  -1.7003  -1.6710  -1.6244
    -1.5788  -1.5057  -1.3807  -1.2188  -1.1631  -1.1245  -1.0080  -0.9998
    -0.9044  -0.8321  -0.6848  -0.6438  -0.6163  -0.5704  -0.4092  -0.2071
     0.0711   0.1570   1.4671   3.1585   4.1048   7.1657   7.3804   8.0061

          k = 0.2500 0.0884 0.0000 ( 11469 PWs)   bands (ev):

    -3.2574  -3.0737  -2.8485  -2.7492  -2.5913  -2.5780  -2.3082  -2.2831
    -2.2201  -2.1893  -2.1141  -1.9970  -1.7013  -1.5648  -1.4807  -1.4213
    -1.2050  -1.1604  -1.0292  -0.9302  -0.9197  -0.8963  -0.8694  -0.8410
    -0.7591  -0.6591  -0.6198  -0.5873  -0.5479  -0.5092  -0.4565  -0.4345
    -0.0444   1.1015   2.5962   4.2904   5.6582   7.8444   8.2439   8.8536

          k = 0.2500 0.2210 0.0000 ( 11436 PWs)   bands (ev):

    -2.8328  -2.8093  -2.6789  -2.6161  -2.5412  -2.4581  -2.4265  -2.2605
    -2.2021  -2.1349  -2.0282  -1.8483  -1.6570  -1.6469  -1.4985  -1.4842
    -1.2719  -1.2132  -1.1870  -1.0453  -0.9670  -0.8506  -0.7012  -0.6708
    -0.6487  -0.6319  -0.5864  -0.5820  -0.5589  -0.5197  -0.1591   0.0673
     0.8316   2.0225   3.4997   5.1703   6.7656   8.4496   9.0016   9.1690

          k = 0.2500 0.3536 0.0000 ( 11393 PWs)   bands (ev):

    -2.6588  -2.6515  -2.4456  -2.4407  -2.2707  -2.2440  -2.2307  -2.2212
    -2.1400  -2.0640  -2.0457  -1.8260  -1.6643  -1.5781  -1.5288  -1.5150
    -1.4478  -1.3197  -1.2737  -1.2214  -0.9779  -0.8258  -0.7634  -0.6490
    -0.5974  -0.5914  -0.5878  -0.5650  -0.4758  -0.4527   1.0392   1.5245
     2.4065   3.5895   5.0202   6.6402   8.4471   8.6014   9.0814   9.1108

          k = 0.2500 0.4861 0.0000 ( 11399 PWs)   bands (ev):

    -2.6996  -2.6766  -2.5814  -2.5587  -2.3862  -2.3841  -2.2793  -2.2576
    -2.1645  -2.1630  -1.8792  -1.8255  -1.6962  -1.6903  -1.5918  -1.4519
    -1.1695  -1.1649  -1.1124  -1.0786  -0.9476  -0.7817  -0.6783  -0.6362
    -0.6076  -0.5484  -0.3873  -0.3797  -0.2084  -0.1880   3.1817   3.7234
     4.5919   5.5222   5.6505   5.9074   7.0125   7.2307   8.0131   8.5809

          k = 0.2500-0.4419 0.0000 ( 11392 PWs)   bands (ev):

    -2.7247  -2.7159  -2.6914  -2.6298  -2.5427  -2.5202  -2.3666  -2.3101
    -2.2271  -2.1096  -2.0402  -1.9085  -1.7218  -1.5738  -1.5591  -1.4055
    -1.1601  -1.1566  -0.9740  -0.9604  -0.8944  -0.8337  -0.7727  -0.7272
    -0.6160  -0.4741  -0.2257  -0.1227   0.0159   0.0230   2.7212   3.1111
     3.8233   4.8106   5.9670   6.1564   7.0757   7.6394   8.0717   8.8434

          k = 0.2500-0.3094 0.0000 ( 11406 PWs)   bands (ev):

    -2.8158  -2.6750  -2.6290  -2.5832  -2.5334  -2.4677  -2.4034  -2.2966
    -2.1559  -2.0416  -2.0284  -1.9448  -1.5510  -1.5428  -1.3943  -1.3801
    -1.2198  -1.2053  -1.0896  -1.0354  -0.9880  -0.8925  -0.7674  -0.7423
    -0.5479  -0.5000  -0.4074  -0.3971  -0.2195  -0.1337   0.4734   0.8764
     1.6233   2.7045   4.1284   5.8286   7.4920   9.1729   9.7658   9.8315

          k = 0.2500-0.1768 0.0000 ( 11422 PWs)   bands (ev):

    -3.0482  -2.7014  -2.6435  -2.4630  -2.2987  -2.2770  -2.2667  -2.1800
    -2.0579  -1.8895  -1.8140  -1.7578  -1.5844  -1.5187  -1.4883  -1.4662
    -1.4044  -1.2720  -1.1916  -1.1019  -1.0694  -1.0556  -1.0468  -1.0121
    -0.9792  -0.9641  -0.8557  -0.7301  -0.7199  -0.3152  -0.2389  -0.0166
     0.4074   1.4291   2.8745   4.6219   6.0393   8.1896   8.6637   9.2694

          k = 0.2500-0.0442 0.0000 ( 11482 PWs)   bands (ev):

    -3.2746  -2.9423  -2.6337  -2.6120  -2.4027  -2.3641  -2.1468  -2.1318
    -2.0526  -2.0432  -1.9910  -1.9309  -1.9201  -1.7556  -1.6533  -1.6267
    -1.4305  -1.3606  -1.1884  -1.1840  -1.0827  -1.0539  -0.9854  -0.9406
    -0.8798  -0.8520  -0.7228  -0.7194  -0.5372  -0.4883  -0.3104  -0.1561
    -0.0321   0.9222   2.3766   4.0991   5.3826   7.7638   8.1332   8.7469

          k = 0.3750 0.1326 0.0000 ( 11401 PWs)   bands (ev):

    -3.0903  -3.0761  -2.9114  -2.8609  -2.6367  -2.6049  -2.5172  -2.4723
    -2.3758  -2.3238  -2.0616  -2.0346  -1.5148  -1.4176  -1.0845  -0.9451
    -0.8547  -0.8474  -0.8029  -0.7739  -0.7043  -0.6666  -0.6281  -0.5976
    -0.5274  -0.4302  -0.3536  -0.3201  -0.2102  -0.1567   0.4696   0.5292
     1.1990   2.4596   3.9878   5.5821   6.8129   7.1210   7.8338   8.0448

          k = 0.3750 0.2652 0.0000 ( 11400 PWs)   bands (ev):

    -2.9552  -2.9502  -2.7357  -2.7248  -2.5859  -2.5550  -2.4764  -2.4100
    -2.2908  -2.1911  -2.0409  -1.9975  -1.5078  -1.5008  -1.2189  -1.1527
    -1.0558  -0.8959  -0.8479  -0.7791  -0.7161  -0.6864  -0.6488  -0.6227
    -0.5904  -0.5684  -0.4574  -0.4123  -0.2159  -0.1988   1.4194   1.7584
     2.5235   3.6262   4.8659   5.5136   6.6155   6.9246   7.4933   8.1296

          k = 0.3750 0.3977 0.0000 ( 11399 PWs)   bands (ev):

    -2.6996  -2.6766  -2.5814  -2.5587  -2.3862  -2.3841  -2.2793  -2.2576
    -2.1645  -2.1630  -1.8792  -1.8255  -1.6962  -1.6903  -1.5918  -1.4519
    -1.1695  -1.1649  -1.1124  -1.0786  -0.9476  -0.7817  -0.6783  -0.6362
    -0.6076  -0.5484  -0.3873  -0.3797  -0.2084  -0.1880   3.1817   3.7234
     4.5919   5.5222   5.6505   5.9074   7.0125   7.2307   8.0133   8.5809

          k = 0.3750 0.5303 0.0000 ( 11360 PWs)   bands (ev):

    -2.8025  -2.7342  -2.7156  -2.6464  -2.6080  -2.5306  -2.3961  -2.3955
    -2.2693  -2.2612  -2.1194  -1.9487  -1.8526  -1.6153  -1.4253  -1.2415
    -0.9144  -0.8842  -0.8156  -0.6897  -0.6501  -0.6073  -0.5472  -0.4878
    -0.4556  -0.4116  -0.3862  -0.3861  -0.2120  -0.1925   5.2644   5.5456
     5.9147   6.1801   6.9160   6.9259   7.0827   7.2488   7.7271   8.1191

          k = 0.3750-0.3977 0.0000 ( 11395 PWs)   bands (ev):

    -3.0087  -2.9951  -2.9852  -2.7873  -2.7845  -2.7513  -2.4978  -2.4416
    -2.4241  -2.3536  -2.2159  -1.9107  -1.6935  -1.3261  -1.2811  -0.9295
    -0.8545  -0.8228  -0.8070  -0.7297  -0.5502  -0.4697  -0.4543  -0.3290
    -0.2873  -0.1993  -0.1184  -0.0475  -0.0315  -0.0051   2.9489   3.5837
     4.5143   5.5971   6.8346   7.7790   8.0462   8.3050   8.4098   8.7186

          k = 0.3750-0.2652 0.0000 ( 11394 PWs)   bands (ev):

    -3.0517  -2.9740  -2.9138  -2.7783  -2.7709  -2.6949  -2.4281  -2.4243
    -2.4154  -2.2782  -2.0942  -1.8136  -1.5733  -1.3165  -1.0273  -1.0157
    -1.0082  -0.8536  -0.8407  -0.7621  -0.5896  -0.5707  -0.4343  -0.4231
    -0.4161  -0.3016  -0.2125  -0.1546  -0.1169  -0.0725   0.9589   1.6602
     2.5956   3.7047   5.0507   6.6505   8.3035   9.6755   9.8036  10.0780

          k = 0.3750-0.1326 0.0000 ( 11406 PWs)   bands (ev):

    -2.8158  -2.6750  -2.6290  -2.5832  -2.5334  -2.4677  -2.4034  -2.2966
    -2.1559  -2.0416  -2.0284  -1.9448  -1.5510  -1.5428  -1.3943  -1.3801
    -1.2198  -1.2053  -1.0896  -1.0354  -0.9880  -0.8925  -0.7674  -0.7423
    -0.5479  -0.5000  -0.4074  -0.3971  -0.2195  -0.1337   0.4734   0.8764
     1.6233   2.7045   4.1284   5.8286   7.4920   9.1729   9.7658   9.8315

          k = 0.3750-0.0000 0.0000 ( 11413 PWs)   bands (ev):

    -2.8411  -2.8400  -2.6641  -2.6444  -2.3761  -2.3672  -2.3356  -2.2365
    -2.2172  -2.1932  -2.0963  -2.0286  -1.8876  -1.8859  -1.5854  -1.5206
    -1.1733  -1.1663  -0.9487  -0.9132  -0.8410  -0.8094  -0.7459  -0.7161
    -0.6082  -0.5881  -0.3559  -0.2672  -0.1860  -0.1319   0.3954   0.5608
     1.1495   2.2869   3.8045   5.5488   7.2803   7.9577   8.5631   8.9088

          k =-0.5000-0.1768 0.0000 ( 11418 PWs)   bands (ev):

    -3.1795  -3.1795  -2.9500  -2.9500  -2.6581  -2.6581  -2.5808  -2.5808
    -2.4147  -2.4146  -2.1408  -2.1408  -1.2748  -1.2748  -0.8989  -0.8988
    -0.7932  -0.7931  -0.7867  -0.7867  -0.6523  -0.6523  -0.6018  -0.6017
    -0.3808  -0.3808  -0.1893  -0.1892   0.0906   0.0906   2.8763   2.8764
     2.9578   2.9578   3.3979   3.3979   6.2643   6.2644   7.2905   7.2906

          k =-0.5000-0.0442 0.0000 ( 11392 PWs)   bands (ev):

    -3.0021  -2.9947  -2.7737  -2.7666  -2.5337  -2.5331  -2.4274  -2.4156
    -2.2504  -2.2365  -2.1146  -2.0709  -1.6978  -1.5500  -1.2992  -1.1872
    -0.9472  -0.9376  -0.8400  -0.8290  -0.8025  -0.7467  -0.6980  -0.6949
    -0.6378  -0.5577  -0.1724  -0.1641   0.0553   0.0987   2.6207   2.8081
     3.2767   3.9342   4.2758   4.3449   6.4465   6.5738   7.3524   7.8416

          k =-0.5000 0.0884 0.0000 ( 11392 PWs)   bands (ev):

    -2.7247  -2.7159  -2.6914  -2.6298  -2.5427  -2.5202  -2.3666  -2.3101
    -2.2271  -2.1096  -2.0402  -1.9085  -1.7218  -1.5738  -1.5591  -1.4055
    -1.1601  -1.1566  -0.9740  -0.9604  -0.8944  -0.8337  -0.7727  -0.7272
    -0.6160  -0.4741  -0.2257  -0.1227   0.0159   0.0230   2.7212   3.1111
     3.8233   4.8106   5.9670   6.1564   7.0757   7.6394   8.0717   8.8434

          k =-0.5000 0.2210 0.0000 ( 11395 PWs)   bands (ev):

    -3.0087  -2.9951  -2.9852  -2.7873  -2.7845  -2.7513  -2.4978  -2.4416
    -2.4241  -2.3536  -2.2159  -1.9107  -1.6935  -1.3261  -1.2811  -0.9295
    -0.8545  -0.8228  -0.8070  -0.7297  -0.5502  -0.4697  -0.4543  -0.3290
    -0.2873  -0.1993  -0.1184  -0.0475  -0.0315  -0.0051   2.9489   3.5837
     4.5143   5.5971   6.8346   7.7790   8.0462   8.3050   8.4098   8.7186

          k =-0.5000-0.7071 0.0000 ( 11406 PWs)   bands (ev):

    -3.1812  -3.1583  -3.1274  -2.9647  -2.9391  -2.8611  -2.6189  -2.5893
    -2.5102  -2.3916  -2.1793  -1.8210  -1.6390  -1.2536  -1.0375  -0.9652
    -0.9482  -0.8138  -0.7910  -0.6514  -0.5203  -0.3363  -0.1521  -0.1031
    -0.0295  -0.0076   0.0822   0.1698   0.2832   0.2838   3.1511   4.0309
     5.2426   6.5603   6.6070   6.7794   7.1650   7.7548   7.8628   8.6031

     the Fermi energy is     2.8050 ev

!    total energy              =    -505.72608049 Ry
     estimated scf accuracy    <       0.00000011 Ry
     smearing contrib. (-TS)   =      -0.00142673 Ry
     internal energy E=F+TS    =    -505.72465376 Ry

     The total energy is F=E-TS. E is the sum of the following terms:
     one-electron contribution =   -6258.59977607 Ry
     hartree contribution      =    3178.99494244 Ry
     xc contribution           =    -133.86303089 Ry
     ewald contribution        =    2707.91056036 Ry
     DFT-D3 Dispersion         =      -0.16734958 Ry

     convergence has been achieved in  11 iterations

     negative rho (up, down):  1.383E-05 0.000E+00

     Forces acting on atoms (cartesian axes, Ry/au):

     atom    1 type  1   force =    -0.00000150    0.00000176   -0.00182174
     atom    2 type  1   force =    -0.00000207    0.00000043   -0.00293820
     atom    3 type  1   force =     0.00000093   -0.00000150    0.00004875
     atom    4 type  1   force =     0.00000032   -0.00000106   -0.00033268
     atom    5 type  1   force =     0.00000141   -0.00000110    0.00303605
     atom    6 type  1   force =     0.00000092    0.00000147    0.00200783
     The non-local contrib.  to forces
     atom    1 type  1   force =     0.00000014    0.00000144    0.06010505
     atom    2 type  1   force =    -0.00000150   -0.00000004    0.03285200
     atom    3 type  1   force =     0.00000149   -0.00000227    0.00742356
     atom    4 type  1   force =     0.00000022   -0.00000207   -0.00762452
     atom    5 type  1   force =     0.00000188   -0.00000097   -0.03274239
     atom    6 type  1   force =     0.00000125    0.00000039   -0.05990588
     The ionic contribution  to forces
     atom    1 type  1   force =     0.00000000   -0.00000000  152.19610853
     atom    2 type  1   force =    -0.00000000    0.00000000   91.75980454
     atom    3 type  1   force =     0.00000000   -0.00000000   30.58508654
     atom    4 type  1   force =    -0.00000000   -0.00000000  -30.58508654
     atom    5 type  1   force =     0.00000000   -0.00000000  -91.75980454
     atom    6 type  1   force =     0.00000000    0.00000000 -152.19610853
     The local contribution  to forces
     atom    1 type  1   force =     0.00000052    0.00000017 -152.25131091
     atom    2 type  1   force =     0.00000136   -0.00000077  -91.79226854
     atom    3 type  1   force =    -0.00000139    0.00000008  -30.59263676
     atom    4 type  1   force =     0.00000056    0.00000177   30.59304680
     atom    5 type  1   force =    -0.00000024    0.00000031   91.79225927
     atom    6 type  1   force =     0.00000011   -0.00000151  152.25104900
     The core correction contribution to forces
     atom    1 type  1   force =     0.00000006    0.00000001   -0.00493669
     atom    2 type  1   force =     0.00000012   -0.00000006    0.00001430
     atom    3 type  1   force =    -0.00000009    0.00000001    0.00017055
     atom    4 type  1   force =     0.00000004    0.00000009   -0.00016520
     atom    5 type  1   force =     0.00000000    0.00000004   -0.00001513
     atom    6 type  1   force =     0.00000001   -0.00000012    0.00493375
     The Hubbard contrib.    to forces
     atom    1 type  1   force =     0.00000000    0.00000000    0.00000000
     atom    2 type  1   force =     0.00000000    0.00000000    0.00000000
     atom    3 type  1   force =     0.00000000    0.00000000    0.00000000
     atom    4 type  1   force =     0.00000000    0.00000000    0.00000000
     atom    5 type  1   force =     0.00000000    0.00000000    0.00000000
     atom    6 type  1   force =     0.00000000    0.00000000    0.00000000
     The SCF correction term to forces
     atom    1 type  1   force =    -0.00000227   -0.00000038    0.00006556
     atom    2 type  1   force =    -0.00000210    0.00000076    0.00020521
     atom    3 type  1   force =     0.00000000    0.00000000    0.00000000
     atom    4 type  1   force =    -0.00000000   -0.00000000   -0.00000000
     atom    5 type  1   force =    -0.00000000   -0.00000000   -0.00000000
     atom    6 type  1   force =    -0.00000000    0.00000000    0.00000000

     DFT-D3 dispersion contribution to forces:
     atom    1 type  1   force =     0.00000000   -0.00000000   -0.00183647
     atom    2 type  1   force =    -0.00000000    0.00000000   -0.00352888
     atom    3 type  1   force =    -0.00000000    0.00000000   -0.00040218
     atom    4 type  1   force =     0.00000000   -0.00000000    0.00040218
     atom    5 type  1   force =    -0.00000000    0.00000000    0.00352888
     atom    6 type  1   force =    -0.00000000   -0.00000000    0.00183647

     Total force =     0.003457     Total SCF correction =     0.000215


     Computing stress (Cartesian axis) and pressure


     negative rho (up, down):  1.383E-05 0.000E+00
          total   stress  (Ry/bohr**3)                   (kbar)     P=      -24.15
  -0.00018877  -0.00001236  -0.00000000          -27.77       -1.82       -0.00
  -0.00001236  -0.00019752  -0.00000000           -1.82      -29.06       -0.00
  -0.00000000  -0.00000000  -0.00010614           -0.00       -0.00      -15.61


     BFGS Geometry Optimization
     Energy error            =      0.0E+00 Ry
     Gradient error          =      2.9E-03 Ry/Bohr

     number of scf cycles    =   1
     number of bfgs steps    =   0

     energy             new  =    -505.7260804919 Ry

     new trust radius        =       0.0029381959 bohr
     new conv_thr            =       0.0000010000 Ry


ATOMIC_POSITIONS (angstrom)
Ag           -0.0000007959        2.0277546796       21.7062776919
Ag            1.9117834703        0.6759181407       19.3642385476
Ag           -0.0000000000        2.0277537470       17.0243450301    0   0   0
Ag            1.9117845668        0.6759179157       14.6828966867    0   0   0
Ag            0.0000000000        2.0277537470       12.3414483434    0   0   0
Ag            1.9117845668        0.6759179157       10.0000000000    0   0   0



     Writing config-only to output data dir ./Ag_110/Ag_110.save/
     NEW-OLD atomic charge density approx. for the potential

     negative rho (up, down):  1.389E-05 0.000E+00

     total cpu time spent up to now is       14.0 secs

     per-process dynamical memory:   185.7 Mb

     Self-consistent Calculation

     iteration #  1     ecut=    55.00 Ry     beta= 0.30
     Davidson diagonalization with overlap
     ethr =  1.00E-06,  avg # of iterations =  2.3

     Threshold (ethr) on eigenvalues was too large:
     Diagonalizing with lowered threshold

     Davidson diagonalization with overlap
     ethr =  6.14E-09,  avg # of iterations =  4.0

     negative rho (up, down):  1.389E-05 0.000E+00

     total cpu time spent up to now is       14.8 secs

     total energy              =    -505.72609136 Ry
     estimated scf accuracy    <       0.00000368 Ry

     iteration #  2     ecut=    55.00 Ry     beta= 0.30
     Davidson diagonalization with overlap
     ethr =  5.57E-09,  avg # of iterations =  2.1

     negative rho (up, down):  1.388E-05 0.000E+00

     total cpu time spent up to now is       15.2 secs

     total energy              =    -505.72608573 Ry
     estimated scf accuracy    <       0.00026336 Ry

     iteration #  3     ecut=    55.00 Ry     beta= 0.30
     Davidson diagonalization with overlap
     ethr =  5.57E-09,  avg # of iterations =  1.8

     negative rho (up, down):  1.388E-05 0.000E+00

     total cpu time spent up to now is       15.6 secs

     total energy              =    -505.72609225 Ry
     estimated scf accuracy    <       0.00001073 Ry

     iteration #  4     ecut=    55.00 Ry     beta= 0.30
     Davidson diagonalization with overlap
     ethr =  5.57E-09,  avg # of iterations =  1.1

     negative rho (up, down):  1.388E-05 0.000E+00

     total cpu time spent up to now is       15.9 secs

     total energy              =    -505.72609272 Ry
     estimated scf accuracy    <       0.00000333 Ry

     iteration #  5     ecut=    55.00 Ry     beta= 0.30
     Davidson diagonalization with overlap
     ethr =  5.04E-09,  avg # of iterations =  1.0

     negative rho (up, down):  1.388E-05 0.000E+00

     total cpu time spent up to now is       16.2 secs

     End of self-consistent calculation

          k = 0.0000 0.0000 0.0000 ( 11533 PWs)   bands (ev):

    -4.4182  -3.9222  -3.2918  -3.2208  -2.9984  -2.9175  -2.6035  -2.5050
    -2.3020  -2.0989  -1.9893  -1.9386  -1.9067  -1.8353  -1.8187  -1.5556
    -1.5278  -1.0572  -0.9005  -0.9003  -0.8140  -0.7915  -0.7353  -0.7333
    -0.7055  -0.6741  -0.6611  -0.6541  -0.6229  -0.5574  -0.4606  -0.4600
    -0.1605   0.1076   0.7457   2.4998   3.2150   6.8245   6.9532   7.5858

          k = 0.0000 0.1326 0.0000 ( 11489 PWs)   bands (ev):

    -4.0666  -3.5994  -3.0249  -3.0185  -2.7807  -2.6895  -2.5251  -2.4288
    -2.2232  -2.0312  -2.0196  -2.0009  -1.9105  -1.9056  -1.7263  -1.7048
    -1.3947  -1.3139  -0.9895  -0.9395  -0.9385  -0.9264  -0.8184  -0.7993
    -0.7807  -0.6723  -0.6619  -0.6426  -0.5761  -0.5468  -0.5008  -0.4388
    -0.2091   0.2020   1.4432   3.0518   3.9635   7.0788   7.2748   7.9021

          k = 0.0000 0.2652 0.0000 ( 11469 PWs)   bands (ev):

    -3.2588  -3.0751  -2.8497  -2.7503  -2.5920  -2.5785  -2.3090  -2.2841
    -2.2212  -2.1900  -2.1151  -1.9978  -1.7020  -1.5656  -1.4813  -1.4217
    -1.2054  -1.1609  -1.0300  -0.9312  -0.9207  -0.8973  -0.8699  -0.8419
    -0.7599  -0.6596  -0.6202  -0.5875  -0.5482  -0.5095  -0.4571  -0.4350
    -0.0451   1.1008   2.5959   4.2904   5.6582   7.8452   8.2453   8.8559

          k = 0.0000 0.3977 0.0000 ( 11401 PWs)   bands (ev):

    -3.0917  -3.0774  -2.9129  -2.8620  -2.6373  -2.6052  -2.5181  -2.4731
    -2.3767  -2.3247  -2.0620  -2.0350  -1.5157  -1.4184  -1.0855  -0.9461
    -0.8558  -0.8480  -0.8036  -0.7748  -0.7053  -0.6670  -0.6286  -0.5980
    -0.5279  -0.4303  -0.3543  -0.3205  -0.2105  -0.1572   0.4688   0.5282
     1.1988   2.4589   3.9873   5.5819   6.8123   7.1203   7.8338   8.0449

          k = 0.0000-0.5303 0.0000 ( 11418 PWs)   bands (ev):

    -3.1809  -3.1809  -2.9514  -2.9512  -2.6586  -2.6583  -2.5819  -2.5818
    -2.4155  -2.4154  -2.1413  -2.1409  -1.2757  -1.2756  -0.9000  -0.8999
    -0.7942  -0.7939  -0.7876  -0.7876  -0.6529  -0.6525  -0.6022  -0.6020
    -0.3815  -0.3813  -0.1898  -0.1898   0.0902   0.0902   2.8752   2.8754
     2.9569   2.9569   3.3972   3.3976   6.2639   6.2640   7.2906   7.2908

          k = 0.1250 0.0442 0.0000 ( 11489 PWs)   bands (ev):

    -4.0666  -3.5994  -3.0249  -3.0185  -2.7807  -2.6895  -2.5251  -2.4288
    -2.2232  -2.0312  -2.0196  -2.0009  -1.9105  -1.9056  -1.7263  -1.7048
    -1.3947  -1.3139  -0.9895  -0.9395  -0.9385  -0.9264  -0.8184  -0.7993
    -0.7807  -0.6723  -0.6619  -0.6426  -0.5761  -0.5468  -0.5008  -0.4388
    -0.2091   0.2020   1.4432   3.0518   3.9635   7.0788   7.2748   7.9021

          k = 0.1250 0.1768 0.0000 ( 11509 PWs)   bands (ev):

    -3.5278  -3.1323  -2.7102  -2.5973  -2.5683  -2.5171  -2.4967  -2.3462
    -2.3207  -2.1427  -2.1151  -2.0167  -1.9633  -1.9429  -1.8795  -1.7267
    -1.4341  -1.3681  -1.0425  -1.0373  -0.9180  -0.7649  -0.7596  -0.7444
    -0.7098  -0.7005  -0.6359  -0.6265  -0.5594  -0.5571  -0.5077  -0.4982
    -0.0776   0.8977   2.2526   3.8439   5.0168   7.4968   7.8130   8.4303

          k = 0.1250 0.3094 0.0000 ( 11436 PWs)   bands (ev):

    -2.8343  -2.8106  -2.6802  -2.6172  -2.5424  -2.4590  -2.4273  -2.2609
    -2.2029  -2.1356  -2.0289  -1.8488  -1.6578  -1.6478  -1.4993  -1.4849
    -1.2726  -1.2136  -1.1875  -1.0460  -0.9676  -0.8510  -0.7020  -0.6716
    -0.6495  -0.6328  -0.5869  -0.5826  -0.5594  -0.5200  -0.1598   0.0667
     0.8313   2.0219   3.4994   5.1704   6.7656   8.4502   9.0033   9.1682

          k = 0.1250 0.4419 0.0000 ( 11400 PWs)   bands (ev):

    -2.9566  -2.9515  -2.7371  -2.7261  -2.5867  -2.5562  -2.4771  -2.4105
    -2.2913  -2.1917  -2.0413  -1.9978  -1.5087  -1.5018  -1.2197  -1.1536
    -1.0569  -0.8967  -0.8485  -0.7795  -0.7167  -0.6868  -0.6494  -0.6233
    -0.5910  -0.5690  -0.4579  -0.4128  -0.2165  -0.1993   1.4185   1.7575
     2.5233   3.6256   4.8652   5.5127   6.6150   6.9244   7.4937   8.1294

          k = 0.1250-0.4861 0.0000 ( 11392 PWs)   bands (ev):

    -3.0034  -2.9960  -2.7750  -2.7679  -2.5346  -2.5344  -2.4282  -2.4161
    -2.2511  -2.2370  -2.1150  -2.0713  -1.6988  -1.5511  -1.3000  -1.1879
    -0.9480  -0.9385  -0.8408  -0.8292  -0.8030  -0.7473  -0.6985  -0.6953
    -0.6384  -0.5584  -0.1729  -0.1648   0.0546   0.0984   2.6199   2.8071
     3.2763   3.9336   4.2748   4.3440   6.4463   6.5734   7.3522   7.8421

          k = 0.1250-0.3536 0.0000 ( 11413 PWs)   bands (ev):

    -2.8424  -2.8414  -2.6655  -2.6456  -2.3775  -2.3677  -2.3364  -2.2371
    -2.2184  -2.1943  -2.0968  -2.0290  -1.8881  -1.8870  -1.5860  -1.5212
    -1.1736  -1.1665  -0.9495  -0.9139  -0.8418  -0.8106  -0.7463  -0.7166
    -0.6086  -0.5886  -0.3567  -0.2678  -0.1867  -0.1322   0.3947   0.5600
     1.1493   2.2862   3.8041   5.5488   7.2803   7.9568   8.5624   8.9095

          k = 0.1250-0.2210 0.0000 ( 11482 PWs)   bands (ev):

    -3.2761  -2.9436  -2.6350  -2.6130  -2.4036  -2.3649  -2.1479  -2.1331
    -2.0538  -2.0438  -1.9915  -1.9317  -1.9210  -1.7566  -1.6536  -1.6272
    -1.4310  -1.3608  -1.1894  -1.1849  -1.0833  -1.0545  -0.9858  -0.9411
    -0.8802  -0.8523  -0.7233  -0.7199  -0.5378  -0.4888  -0.3111  -0.1566
    -0.0325   0.9215   2.3763   4.0991   5.3825   7.7645   8.1347   8.7490

          k = 0.1250-0.0884 0.0000 ( 11507 PWs)   bands (ev):

    -3.9475  -3.4698  -2.9610  -2.9206  -2.6722  -2.5755  -2.3061  -2.2178
    -2.0323  -1.9394  -1.8796  -1.8637  -1.8028  -1.7008  -1.6714  -1.6250
    -1.5799  -1.5067  -1.3816  -1.2196  -1.1643  -1.1244  -1.0084  -1.0004
    -0.9046  -0.8323  -0.6852  -0.6442  -0.6170  -0.5710  -0.4099  -0.2079
     0.0708   0.1562   1.4667   3.1583   4.1046   7.1665   7.3820   8.0084

          k = 0.2500 0.0884 0.0000 ( 11469 PWs)   bands (ev):

    -3.2588  -3.0751  -2.8497  -2.7503  -2.5920  -2.5785  -2.3090  -2.2841
    -2.2212  -2.1900  -2.1151  -1.9978  -1.7020  -1.5656  -1.4813  -1.4217
    -1.2054  -1.1609  -1.0300  -0.9312  -0.9207  -0.8973  -0.8699  -0.8419
    -0.7599  -0.6596  -0.6202  -0.5875  -0.5482  -0.5095  -0.4571  -0.4350
    -0.0451   1.1008   2.5959   4.2904   5.6582   7.8452   8.2453   8.8559

          k = 0.2500 0.2210 0.0000 ( 11436 PWs)   bands (ev):

    -2.8343  -2.8106  -2.6802  -2.6172  -2.5424  -2.4590  -2.4273  -2.2609
    -2.2029  -2.1356  -2.0289  -1.8488  -1.6578  -1.6478  -1.4993  -1.4849
    -1.2726  -1.2136  -1.1875  -1.0460  -0.9676  -0.8510  -0.7020  -0.6716
    -0.6495  -0.6328  -0.5869  -0.5826  -0.5594  -0.5200  -0.1598   0.0667
     0.8313   2.0219   3.4994   5.1704   6.7656   8.4502   9.0033   9.1682

          k = 0.2500 0.3536 0.0000 ( 11393 PWs)   bands (ev):

    -2.6603  -2.6527  -2.4471  -2.4416  -2.2724  -2.2446  -2.2315  -2.2226
    -2.1406  -2.0649  -2.0463  -1.8269  -1.6652  -1.5785  -1.5293  -1.5153
    -1.4481  -1.3199  -1.2739  -1.2218  -0.9782  -0.8264  -0.7640  -0.6497
    -0.5979  -0.5920  -0.5885  -0.5660  -0.4766  -0.4532   1.0383   1.5237
     2.4064   3.5889   5.0199   6.6404   8.4472   8.6006   9.0804   9.1100

          k = 0.2500 0.4861 0.0000 ( 11399 PWs)   bands (ev):

    -2.7012  -2.6777  -2.5829  -2.5598  -2.3870  -2.3853  -2.2811  -2.2585
    -2.1650  -2.1635  -1.8802  -1.8258  -1.6968  -1.6910  -1.5923  -1.4525
    -1.1698  -1.1651  -1.1127  -1.0790  -0.9483  -0.7823  -0.6789  -0.6368
    -0.6082  -0.5490  -0.3879  -0.3805  -0.2092  -0.1883   3.1807   3.7225
     4.5917   5.5213   5.6497   5.9065   7.0123   7.2304   8.0129   8.5811

          k = 0.2500-0.4419 0.0000 ( 11392 PWs)   bands (ev):

    -2.7260  -2.7173  -2.6930  -2.6311  -2.5438  -2.5215  -2.3677  -2.3114
    -2.2275  -2.1101  -2.0407  -1.9088  -1.7224  -1.5747  -1.5598  -1.4063
    -1.1603  -1.1568  -0.9748  -0.9609  -0.8951  -0.8342  -0.7731  -0.7280
    -0.6167  -0.4746  -0.2262  -0.1234   0.0152   0.0227   2.7202   3.1102
     3.8232   4.8100   5.9663   6.1553   7.0752   7.6392   8.0720   8.8429

          k = 0.2500-0.3094 0.0000 ( 11406 PWs)   bands (ev):

    -2.8173  -2.6764  -2.6302  -2.5844  -2.5348  -2.4689  -2.4044  -2.2981
    -2.1561  -2.0421  -2.0288  -1.9452  -1.5514  -1.5438  -1.3953  -1.3808
    -1.2200  -1.2056  -1.0902  -1.0362  -0.9885  -0.8931  -0.7679  -0.7431
    -0.5485  -0.5004  -0.4079  -0.3980  -0.2200  -0.1340   0.4726   0.8757
     1.6232   2.7038   4.1280   5.8287   7.4919   9.1734   9.7648   9.8331

          k = 0.2500-0.1768 0.0000 ( 11422 PWs)   bands (ev):

    -3.0497  -2.7029  -2.6446  -2.4643  -2.2998  -2.2782  -2.2671  -2.1816
    -2.0580  -1.8909  -1.8144  -1.7587  -1.5854  -1.5196  -1.4886  -1.4675
    -1.4050  -1.2726  -1.1921  -1.1021  -1.0697  -1.0557  -1.0473  -1.0124
    -0.9796  -0.9645  -0.8564  -0.7309  -0.7204  -0.3160  -0.2393  -0.0168
     0.4072   1.4283   2.8741   4.6219   6.0392   8.1902   8.6652   9.2718

          k = 0.2500-0.0442 0.0000 ( 11482 PWs)   bands (ev):

    -3.2761  -2.9436  -2.6350  -2.6130  -2.4036  -2.3649  -2.1479  -2.1331
    -2.0538  -2.0438  -1.9915  -1.9317  -1.9210  -1.7566  -1.6536  -1.6272
    -1.4310  -1.3608  -1.1894  -1.1849  -1.0833  -1.0545  -0.9858  -0.9411
    -0.8802  -0.8523  -0.7233  -0.7199  -0.5378  -0.4888  -0.3111  -0.1566
    -0.0325   0.9215   2.3763   4.0991   5.3825   7.7645   8.1347   8.7492

          k = 0.3750 0.1326 0.0000 ( 11401 PWs)   bands (ev):

    -3.0917  -3.0774  -2.9129  -2.8620  -2.6373  -2.6052  -2.5181  -2.4731
    -2.3767  -2.3247  -2.0620  -2.0350  -1.5157  -1.4184  -1.0855  -0.9461
    -0.8558  -0.8480  -0.8036  -0.7748  -0.7053  -0.6670  -0.6286  -0.5980
    -0.5279  -0.4303  -0.3543  -0.3205  -0.2105  -0.1572   0.4688   0.5282
     1.1988   2.4589   3.9873   5.5819   6.8123   7.1203   7.8338   8.0449

          k = 0.3750 0.2652 0.0000 ( 11400 PWs)   bands (ev):

    -2.9566  -2.9515  -2.7371  -2.7261  -2.5867  -2.5562  -2.4771  -2.4105
    -2.2913  -2.1917  -2.0413  -1.9978  -1.5087  -1.5018  -1.2197  -1.1536
    -1.0569  -0.8967  -0.8485  -0.7795  -0.7167  -0.6868  -0.6494  -0.6233
    -0.5910  -0.5690  -0.4579  -0.4128  -0.2165  -0.1993   1.4185   1.7575
     2.5233   3.6256   4.8652   5.5127   6.6150   6.9244   7.4937   8.1294

          k = 0.3750 0.3977 0.0000 ( 11399 PWs)   bands (ev):

    -2.7012  -2.6777  -2.5829  -2.5598  -2.3870  -2.3853  -2.2811  -2.2585
    -2.1650  -2.1635  -1.8802  -1.8258  -1.6968  -1.6910  -1.5923  -1.4525
    -1.1698  -1.1651  -1.1127  -1.0790  -0.9483  -0.7823  -0.6789  -0.6368
    -0.6082  -0.5490  -0.3879  -0.3805  -0.2092  -0.1883   3.1807   3.7225
     4.5917   5.5213   5.6497   5.9065   7.0123   7.2304   8.0129   8.5811

          k = 0.3750 0.5303 0.0000 ( 11360 PWs)   bands (ev):

    -2.8038  -2.7357  -2.7170  -2.6478  -2.6093  -2.5318  -2.3975  -2.3968
    -2.2695  -2.2616  -2.1195  -1.9489  -1.8535  -1.6156  -1.4261  -1.2420
    -0.9148  -0.8847  -0.8163  -0.6901  -0.6509  -0.6081  -0.5479  -0.4882
    -0.4565  -0.4119  -0.3867  -0.3865  -0.2126  -0.1930   5.2633   5.5445
     5.9139   6.1793   6.9152   6.9258   7.0822   7.2483   7.7266   8.1182

          k = 0.3750-0.3977 0.0000 ( 11395 PWs)   bands (ev):

    -3.0101  -2.9964  -2.9866  -2.7885  -2.7857  -2.7525  -2.4991  -2.4418
    -2.4243  -2.3539  -2.2170  -1.9112  -1.6940  -1.3268  -1.2818  -0.9301
    -0.8552  -0.8231  -0.8075  -0.7304  -0.5511  -0.4704  -0.4551  -0.3301
    -0.2875  -0.2001  -0.1189  -0.0480  -0.0317  -0.0053   2.9479   3.5829
     4.5143   5.5964   6.8341   7.7782   8.0455   8.3048   8.4087   8.7183

          k = 0.3750-0.2652 0.0000 ( 11394 PWs)   bands (ev):

    -3.0532  -2.9755  -2.9151  -2.7795  -2.7721  -2.6962  -2.4281  -2.4243
    -2.4170  -2.2784  -2.0956  -1.8142  -1.5733  -1.3172  -1.0281  -1.0165
    -1.0090  -0.8540  -0.8411  -0.7626  -0.5906  -0.5713  -0.4356  -0.4242
    -0.4167  -0.3021  -0.2128  -0.1549  -0.1171  -0.0728   0.9578   1.6595
     2.5956   3.7039   5.0502   6.6506   8.3034   9.6746   9.8039  10.0772

          k = 0.3750-0.1326 0.0000 ( 11406 PWs)   bands (ev):

    -2.8173  -2.6764  -2.6302  -2.5844  -2.5348  -2.4689  -2.4044  -2.2981
    -2.1561  -2.0421  -2.0288  -1.9452  -1.5514  -1.5438  -1.3953  -1.3808
    -1.2200  -1.2056  -1.0902  -1.0362  -0.9885  -0.8931  -0.7679  -0.7431
    -0.5485  -0.5004  -0.4079  -0.3980  -0.2200  -0.1340   0.4726   0.8757
     1.6232   2.7038   4.1280   5.8287   7.4919   9.1734   9.7648   9.8331

          k = 0.3750-0.0000 0.0000 ( 11413 PWs)   bands (ev):

    -2.8424  -2.8414  -2.6655  -2.6456  -2.3775  -2.3677  -2.3364  -2.2371
    -2.2184  -2.1943  -2.0968  -2.0290  -1.8881  -1.8870  -1.5860  -1.5212
    -1.1736  -1.1665  -0.9495  -0.9139  -0.8418  -0.8106  -0.7463  -0.7166
    -0.6086  -0.5886  -0.3567  -0.2678  -0.1867  -0.1322   0.3947   0.5600
     1.1493   2.2862   3.8041   5.5488   7.2803   7.9568   8.5624   8.9094

          k =-0.5000-0.1768 0.0000 ( 11418 PWs)   bands (ev):

    -3.1809  -3.1809  -2.9514  -2.9512  -2.6586  -2.6583  -2.5819  -2.5818
    -2.4155  -2.4154  -2.1413  -2.1409  -1.2757  -1.2756  -0.9000  -0.8999
    -0.7942  -0.7939  -0.7876  -0.7876  -0.6529  -0.6525  -0.6022  -0.6020
    -0.3815  -0.3813  -0.1898  -0.1898   0.0902   0.0902   2.8752   2.8754
     2.9569   2.9569   3.3972   3.3976   6.2639   6.2640   7.2906   7.2908

          k =-0.5000-0.0442 0.0000 ( 11392 PWs)   bands (ev):

    -3.0034  -2.9960  -2.7750  -2.7679  -2.5346  -2.5344  -2.4282  -2.4161
    -2.2511  -2.2370  -2.1150  -2.0713  -1.6988  -1.5511  -1.3000  -1.1879
    -0.9480  -0.9385  -0.8408  -0.8292  -0.8030  -0.7473  -0.6985  -0.6953
    -0.6384  -0.5584  -0.1729  -0.1648   0.0546   0.0984   2.6199   2.8071
     3.2763   3.9336   4.2748   4.3440   6.4463   6.5734   7.3522   7.8421

          k =-0.5000 0.0884 0.0000 ( 11392 PWs)   bands (ev):

    -2.7260  -2.7173  -2.6930  -2.6311  -2.5438  -2.5215  -2.3677  -2.3114
    -2.2275  -2.1101  -2.0407  -1.9088  -1.7224  -1.5747  -1.5598  -1.4063
    -1.1603  -1.1568  -0.9748  -0.9609  -0.8951  -0.8342  -0.7731  -0.7280
    -0.6167  -0.4746  -0.2262  -0.1234   0.0152   0.0227   2.7202   3.1102
     3.8232   4.8100   5.9663   6.1553   7.0752   7.6392   8.0720   8.8429

          k =-0.5000 0.2210 0.0000 ( 11395 PWs)   bands (ev):

    -3.0101  -2.9964  -2.9866  -2.7885  -2.7857  -2.7525  -2.4991  -2.4418
    -2.4243  -2.3539  -2.2170  -1.9112  -1.6940  -1.3268  -1.2818  -0.9301
    -0.8552  -0.8231  -0.8075  -0.7304  -0.5511  -0.4704  -0.4551  -0.3301
    -0.2875  -0.2001  -0.1189  -0.0480  -0.0317  -0.0053   2.9479   3.5829
     4.5143   5.5964   6.8341   7.7782   8.0455   8.3048   8.4087   8.7183

          k =-0.5000-0.7071 0.0000 ( 11406 PWs)   bands (ev):

    -3.1827  -3.1597  -3.1287  -2.9659  -2.9402  -2.8624  -2.6189  -2.5892
    -2.5118  -2.3917  -2.1806  -1.8217  -1.6389  -1.2544  -1.0383  -0.9661
    -0.9488  -0.8144  -0.7914  -0.6518  -0.5211  -0.3369  -0.1523  -0.1036
    -0.0307  -0.0090   0.0816   0.1695   0.2831   0.2838   3.1498   4.0301
     5.2428   6.5593   6.6063   6.7785   7.1644   7.7545   7.8623   8.6024

     the Fermi energy is     2.8042 ev

!    total energy              =    -505.72609290 Ry
     estimated scf accuracy    <          9.9E-09 Ry
     smearing contrib. (-TS)   =      -0.00143132 Ry
     internal energy E=F+TS    =    -505.72466158 Ry

     The total energy is F=E-TS. E is the sum of the following terms:
     one-electron contribution =   -6259.69582200 Ry
     hartree contribution      =    3179.54421367 Ry
     xc contribution           =    -133.86316145 Ry
     ewald contribution        =    2708.45747153 Ry
     DFT-D3 Dispersion         =      -0.16736332 Ry

     convergence has been achieved in   5 iterations

     negative rho (up, down):  1.388E-05 0.000E+00

     Forces acting on atoms (cartesian axes, Ry/au):

     atom    1 type  1   force =     0.00000108    0.00000044   -0.00192894
     atom    2 type  1   force =     0.00000223   -0.00000033   -0.00281001
     atom    3 type  1   force =     0.00000002   -0.00000092   -0.00010640
     atom    4 type  1   force =    -0.00000275    0.00000103    0.00005232
     atom    5 type  1   force =    -0.00000124   -0.00000046    0.00300171
     atom    6 type  1   force =     0.00000067    0.00000024    0.00179132
     The non-local contrib.  to forces
     atom    1 type  1   force =     0.00000088    0.00000023    0.06013200
     atom    2 type  1   force =     0.00000123   -0.00000049    0.03298358
     atom    3 type  1   force =    -0.00000039   -0.00000068    0.00728962
     atom    4 type  1   force =    -0.00000283    0.00000062   -0.00733445
     atom    5 type  1   force =    -0.00000194   -0.00000050   -0.03282306
     atom    6 type  1   force =     0.00000038    0.00000056   -0.06022965
     The ionic contribution  to forces
     atom    1 type  1   force =    -0.00000059   -0.00000088  152.20838255
     atom    2 type  1   force =     0.00000112    0.00000128   91.77994610
     atom    3 type  1   force =    -0.00000053   -0.00000040   30.57886373
     atom    4 type  1   force =     0.00000001   -0.00000000  -30.59382849
     atom    5 type  1   force =    -0.00000000   -0.00000000  -91.76852992
     atom    6 type  1   force =     0.00000000    0.00000000 -152.20483397
     The local contribution  to forces
     atom    1 type  1   force =     0.00000034    0.00000109 -152.26353959
     atom    2 type  1   force =    -0.00000146   -0.00000145  -91.81220878
     atom    3 type  1   force =     0.00000133   -0.00000011  -30.58618122
     atom    4 type  1   force =    -0.00000067   -0.00000007   30.60091890
     atom    5 type  1   force =     0.00000061   -0.00000001   91.80106526
     atom    6 type  1   force =    -0.00000037   -0.00000006  152.26038502
     The core correction contribution to forces
     atom    1 type  1   force =    -0.00000002    0.00000001   -0.00491807
     atom    2 type  1   force =    -0.00000002   -0.00000000   -0.00001735
     atom    3 type  1   force =     0.00000004   -0.00000003    0.00019284
     atom    4 type  1   force =    -0.00000001   -0.00000003   -0.00016820
     atom    5 type  1   force =     0.00000006   -0.00000001   -0.00001464
     atom    6 type  1   force =    -0.00000002   -0.00000001    0.00492923
     The Hubbard contrib.    to forces
     atom    1 type  1   force =     0.00000000    0.00000000    0.00000000
     atom    2 type  1   force =     0.00000000    0.00000000    0.00000000
     atom    3 type  1   force =     0.00000000    0.00000000    0.00000000
     atom    4 type  1   force =     0.00000000    0.00000000    0.00000000
     atom    5 type  1   force =     0.00000000    0.00000000    0.00000000
     atom    6 type  1   force =     0.00000000    0.00000000    0.00000000
     The SCF correction term to forces
     atom    1 type  1   force =     0.00000000   -0.00000007   -0.00014682
     atom    2 type  1   force =     0.00000090    0.00000028    0.00003094
     atom    3 type  1   force =    -0.00000000    0.00000000    0.00000000
     atom    4 type  1   force =     0.00000000    0.00000000    0.00000000
     atom    5 type  1   force =    -0.00000000    0.00000000   -0.00000000
     atom    6 type  1   force =     0.00000000   -0.00000000   -0.00000000

     DFT-D3 dispersion contribution to forces:
     atom    1 type  1   force =     0.00000000    0.00000000   -0.00183665
     atom    2 type  1   force =    -0.00000001   -0.00000000   -0.00354214
     atom    3 type  1   force =     0.00000000    0.00000000   -0.00039337
     atom    4 type  1   force =     0.00000000   -0.00000000    0.00040618
     atom    5 type  1   force =     0.00000000    0.00000000    0.00352942
     atom    6 type  1   force =    -0.00000000    0.00000000    0.00183656

     Total force =     0.003408     Total SCF correction =     0.000150


     Computing stress (Cartesian axis) and pressure


     negative rho (up, down):  1.388E-05 0.000E+00
          total   stress  (Ry/bohr**3)                   (kbar)     P=      -24.04
  -0.00018810  -0.00001235  -0.00000000          -27.67       -1.82       -0.00
  -0.00001235  -0.00019683  -0.00000000           -1.82      -28.96       -0.00
  -0.00000000  -0.00000000  -0.00010526           -0.00       -0.00      -15.48

     Energy error            =      1.2E-05 Ry
     Gradient error          =      2.8E-03 Ry/Bohr

     number of scf cycles    =   2
     number of bfgs steps    =   1

     energy             old  =    -505.7260804919 Ry
     energy             new  =    -505.7260928995 Ry

     CASE: energy            _new < energy            _old


     WARNING: bfgs curvature condition failed, Theta= 0.812
     new trust radius        =       0.0032320154 bohr
     new conv_thr            =       0.0000000100 Ry


ATOMIC_POSITIONS (angstrom)
Ag           -0.0000013060        2.0277555249       21.7051901811
Ag            1.9117828748        0.6759182812       19.3625282387
Ag           -0.0000000000        2.0277537470       17.0243450301    0   0   0
Ag            1.9117845668        0.6759179157       14.6828966867    0   0   0
Ag            0.0000000000        2.0277537470       12.3414483434    0   0   0
Ag            1.9117845668        0.6759179157       10.0000000000    0   0   0



     Writing config-only to output data dir ./Ag_110/Ag_110.save/
     NEW-OLD atomic charge density approx. for the potential

     negative rho (up, down):  1.395E-05 0.000E+00

     total cpu time spent up to now is       17.4 secs

     per-process dynamical memory:   185.7 Mb

     Self-consistent Calculation

     iteration #  1     ecut=    55.00 Ry     beta= 0.30
     Davidson diagonalization with overlap
     ethr =  1.00E-06,  avg # of iterations =  2.5

     Threshold (ethr) on eigenvalues was too large:
     Diagonalizing with lowered threshold

     Davidson diagonalization with overlap
     ethr =  1.48E-09,  avg # of iterations =  5.8

     negative rho (up, down):  1.393E-05 0.000E+00

     total cpu time spent up to now is       18.6 secs

     total energy              =    -505.72610574 Ry
     estimated scf accuracy    <       0.00000071 Ry

     iteration #  2     ecut=    55.00 Ry     beta= 0.30
     Davidson diagonalization with overlap
     ethr =  1.07E-09,  avg # of iterations =  2.2

     negative rho (up, down):  1.393E-05 0.000E+00

     total cpu time spent up to now is       18.9 secs

     total energy              =    -505.72610539 Ry
     estimated scf accuracy    <       0.00001049 Ry

     iteration #  3     ecut=    55.00 Ry     beta= 0.30
     Davidson diagonalization with overlap
     ethr =  1.07E-09,  avg # of iterations =  1.7

     negative rho (up, down):  1.393E-05 0.000E+00

     total cpu time spent up to now is       19.3 secs

     total energy              =    -505.72610567 Ry
     estimated scf accuracy    <       0.00001237 Ry

     iteration #  4     ecut=    55.00 Ry     beta= 0.30
     Davidson diagonalization with overlap
     ethr =  1.07E-09,  avg # of iterations =  1.1

     negative rho (up, down):  1.393E-05 0.000E+00

     total cpu time spent up to now is       19.6 secs

     total energy              =    -505.72610597 Ry
     estimated scf accuracy    <       0.00000059 Ry

     iteration #  5     ecut=    55.00 Ry     beta= 0.30
     Davidson diagonalization with overlap
     ethr =  8.94E-10,  avg # of iterations =  1.0

     negative rho (up, down):  1.392E-05 0.000E+00

     total cpu time spent up to now is       19.9 secs

     total energy              =    -505.72610601 Ry
     estimated scf accuracy    <       0.00000001 Ry

     iteration #  6     ecut=    55.00 Ry     beta= 0.30
     Davidson diagonalization with overlap
     ethr =  1.73E-11,  avg # of iterations =  2.8

     negative rho (up, down):  1.391E-05 0.000E+00

     total cpu time spent up to now is       20.3 secs

     End of self-consistent calculation

          k = 0.0000 0.0000 0.0000 ( 11533 PWs)   bands (ev):

    -4.4191  -3.9226  -3.2919  -3.2215  -2.9982  -2.9173  -2.6040  -2.5052
    -2.3018  -2.0989  -1.9892  -1.9385  -1.9069  -1.8353  -1.8198  -1.5555
    -1.5283  -1.0566  -0.9005  -0.9005  -0.8141  -0.7915  -0.7356  -0.7334
    -0.7055  -0.6744  -0.6609  -0.6539  -0.6233  -0.5577  -0.4608  -0.4593
    -0.1604   0.1080   0.7461   2.5000   3.2154   6.8250   6.9532   7.5857

          k = 0.0000 0.1326 0.0000 ( 11489 PWs)   bands (ev):

    -4.0675  -3.5997  -3.0251  -3.0191  -2.7805  -2.6893  -2.5257  -2.4290
    -2.2230  -2.0314  -2.0198  -2.0011  -1.9109  -1.9057  -1.7264  -1.7048
    -1.3946  -1.3136  -0.9896  -0.9397  -0.9386  -0.9265  -0.8185  -0.7993
    -0.7809  -0.6723  -0.6619  -0.6424  -0.5760  -0.5469  -0.5009  -0.4388
    -0.2089   0.2022   1.4435   3.0521   3.9639   7.0794   7.2748   7.9019

          k = 0.0000 0.2652 0.0000 ( 11469 PWs)   bands (ev):

    -3.2596  -3.0756  -2.8501  -2.7508  -2.5919  -2.5784  -2.3092  -2.2847
    -2.2217  -2.1900  -2.1152  -1.9978  -1.7021  -1.5658  -1.4812  -1.4217
    -1.2052  -1.1608  -1.0301  -0.9316  -0.9211  -0.8975  -0.8698  -0.8418
    -0.7600  -0.6596  -0.6202  -0.5873  -0.5480  -0.5094  -0.4571  -0.4350
    -0.0451   1.1009   2.5963   4.2911   5.6588   7.8459   8.2453   8.8558

          k = 0.0000 0.3977 0.0000 ( 11401 PWs)   bands (ev):

    -3.0923  -3.0781  -2.9132  -2.8623  -2.6373  -2.6052  -2.5184  -2.4735
    -2.3767  -2.3249  -2.0618  -2.0348  -1.5161  -1.4186  -1.0856  -0.9464
    -0.8559  -0.8481  -0.8037  -0.7751  -0.7053  -0.6669  -0.6287  -0.5980
    -0.5279  -0.4303  -0.3543  -0.3204  -0.2104  -0.1573   0.4687   0.5282
     1.1991   2.4588   3.9876   5.5823   6.8123   7.1204   7.8346   8.0455

          k = 0.0000-0.5303 0.0000 ( 11418 PWs)   bands (ev):

    -3.1816  -3.1816  -2.9518  -2.9514  -2.6586  -2.6581  -2.5825  -2.5821
    -2.4156  -2.4153  -2.1414  -2.1404  -1.2761  -1.2759  -0.9001  -0.9000
    -0.7950  -0.7938  -0.7877  -0.7877  -0.6530  -0.6520  -0.6025  -0.6020
    -0.3816  -0.3812  -0.1898  -0.1896   0.0903   0.0904   2.8748   2.8753
     2.9567   2.9567   3.3970   3.3981   6.2638   6.2643   7.2913   7.2917

          k = 0.1250 0.0442 0.0000 ( 11489 PWs)   bands (ev):

    -4.0675  -3.5997  -3.0251  -3.0191  -2.7805  -2.6893  -2.5257  -2.4290
    -2.2230  -2.0314  -2.0198  -2.0011  -1.9109  -1.9057  -1.7264  -1.7048
    -1.3946  -1.3136  -0.9896  -0.9397  -0.9386  -0.9265  -0.8185  -0.7993
    -0.7809  -0.6723  -0.6619  -0.6424  -0.5760  -0.5469  -0.5009  -0.4388
    -0.2089   0.2022   1.4435   3.0521   3.9639   7.0794   7.2748   7.9019

          k = 0.1250 0.1768 0.0000 ( 11509 PWs)   bands (ev):

    -3.5287  -3.1327  -2.7109  -2.5974  -2.5688  -2.5173  -2.4970  -2.3460
    -2.3206  -2.1430  -2.1152  -2.0169  -1.9633  -1.9433  -1.8795  -1.7267
    -1.4340  -1.3677  -1.0428  -1.0374  -0.9181  -0.7651  -0.7595  -0.7445
    -0.7098  -0.7009  -0.6361  -0.6266  -0.5593  -0.5569  -0.5076  -0.4979
    -0.0776   0.8978   2.2530   3.8444   5.0174   7.4976   7.8131   8.4303

          k = 0.1250 0.3094 0.0000 ( 11436 PWs)   bands (ev):

    -2.8352  -2.8112  -2.6806  -2.6177  -2.5428  -2.4592  -2.4275  -2.2609
    -2.2028  -2.1358  -2.0289  -1.8487  -1.6581  -1.6479  -1.4995  -1.4851
    -1.2728  -1.2134  -1.1874  -1.0460  -0.9676  -0.8508  -0.7021  -0.6717
    -0.6497  -0.6330  -0.5869  -0.5826  -0.5593  -0.5199  -0.1600   0.0667
     0.8316   2.0219   3.4999   5.1712   6.7662   8.4510   9.0033   9.1679

          k = 0.1250 0.4419 0.0000 ( 11400 PWs)   bands (ev):

    -2.9574  -2.9522  -2.7375  -2.7264  -2.5870  -2.5568  -2.4773  -2.4104
    -2.2913  -2.1916  -2.0411  -1.9976  -1.5090  -1.5021  -1.2201  -1.1536
    -1.0571  -0.8970  -0.8483  -0.7793  -0.7168  -0.6867  -0.6495  -0.6233
    -0.5910  -0.5689  -0.4579  -0.4128  -0.2163  -0.1993   1.4181   1.7574
     2.5236   3.6255   4.8654   5.5125   6.6152   6.9247   7.4947   8.1298

          k = 0.1250-0.4861 0.0000 ( 11392 PWs)   bands (ev):

    -3.0042  -2.9967  -2.7754  -2.7683  -2.5351  -2.5345  -2.4284  -2.4161
    -2.2510  -2.2369  -2.1149  -2.0712  -1.6993  -1.5513  -1.3003  -1.1878
    -0.9481  -0.9389  -0.8408  -0.8291  -0.8029  -0.7474  -0.6985  -0.6952
    -0.6384  -0.5584  -0.1728  -0.1649   0.0547   0.0986   2.6196   2.8069
     3.2764   3.9334   4.2746   4.3440   6.4466   6.5736   7.3528   7.8431

          k = 0.1250-0.3536 0.0000 ( 11413 PWs)   bands (ev):

    -2.8432  -2.8422  -2.6661  -2.6459  -2.3778  -2.3677  -2.3366  -2.2372
    -2.2189  -2.1948  -2.0967  -2.0288  -1.8880  -1.8872  -1.5860  -1.5212
    -1.1736  -1.1662  -0.9496  -0.9141  -0.8417  -0.8109  -0.7461  -0.7165
    -0.6086  -0.5886  -0.3567  -0.2677  -0.1866  -0.1320   0.3946   0.5600
     1.1496   2.2861   3.8045   5.5496   7.2808   7.9565   8.5625   8.9103

          k = 0.1250-0.2210 0.0000 ( 11482 PWs)   bands (ev):

    -3.2770  -2.9441  -2.6358  -2.6132  -2.4038  -2.3652  -2.1482  -2.1334
    -2.0543  -2.0439  -1.9913  -1.9319  -1.9213  -1.7569  -1.6535  -1.6272
    -1.4310  -1.3605  -1.1895  -1.1850  -1.0832  -1.0546  -0.9855  -0.9412
    -0.8802  -0.8521  -0.7232  -0.7198  -0.5379  -0.4888  -0.3111  -0.1563
    -0.0322   0.9214   2.3766   4.0997   5.3830   7.7653   8.1347   8.7490

          k = 0.1250-0.0884 0.0000 ( 11507 PWs)   bands (ev):

    -3.9484  -3.4702  -2.9618  -2.9208  -2.6719  -2.5752  -2.3066  -2.2180
    -2.0321  -1.9404  -1.8799  -1.8639  -1.8029  -1.7008  -1.6713  -1.6251
    -1.5802  -1.5069  -1.3819  -1.2197  -1.1644  -1.1238  -1.0085  -1.0002
    -0.9044  -0.8321  -0.6852  -0.6441  -0.6174  -0.5710  -0.4099  -0.2079
     0.0712   0.1561   1.4670   3.1586   4.1050   7.1671   7.3820   8.0083

          k = 0.2500 0.0884 0.0000 ( 11469 PWs)   bands (ev):

    -3.2596  -3.0756  -2.8501  -2.7508  -2.5919  -2.5784  -2.3092  -2.2847
    -2.2217  -2.1900  -2.1152  -1.9978  -1.7021  -1.5658  -1.4812  -1.4217
    -1.2052  -1.1608  -1.0301  -0.9316  -0.9211  -0.8975  -0.8698  -0.8418
    -0.7600  -0.6596  -0.6202  -0.5873  -0.5480  -0.5094  -0.4571  -0.4350
    -0.0451   1.1009   2.5963   4.2911   5.6588   7.8459   8.2453   8.8558

          k = 0.2500 0.2210 0.0000 ( 11436 PWs)   bands (ev):

    -2.8352  -2.8112  -2.6806  -2.6177  -2.5428  -2.4592  -2.4275  -2.2609
    -2.2028  -2.1358  -2.0289  -1.8487  -1.6581  -1.6479  -1.4995  -1.4851
    -1.2728  -1.2134  -1.1874  -1.0460  -0.9676  -0.8508  -0.7021  -0.6717
    -0.6497  -0.6330  -0.5869  -0.5826  -0.5593  -0.5199  -0.1600   0.0667
     0.8316   2.0219   3.4999   5.1712   6.7662   8.4510   9.0033   9.1679

          k = 0.2500 0.3536 0.0000 ( 11393 PWs)   bands (ev):

    -2.6612  -2.6534  -2.4478  -2.4419  -2.2734  -2.2447  -2.2317  -2.2233
    -2.1405  -2.0648  -2.0464  -1.8268  -1.6655  -1.5787  -1.5294  -1.5151
    -1.4479  -1.3197  -1.2738  -1.2216  -0.9778  -0.8264  -0.7640  -0.6496
    -0.5979  -0.5920  -0.5886  -0.5661  -0.4766  -0.4532   1.0379   1.5238
     2.4068   3.5889   5.0204   6.6414   8.4477   8.6004   9.0801   9.1100

          k = 0.2500 0.4861 0.0000 ( 11399 PWs)   bands (ev):

    -2.7021  -2.6784  -2.5836  -2.5603  -2.3871  -2.3858  -2.2819  -2.2584
    -2.1649  -2.1635  -1.8804  -1.8256  -1.6967  -1.6911  -1.5926  -1.4525
    -1.1697  -1.1648  -1.1126  -1.0790  -0.9482  -0.7824  -0.6789  -0.6367
    -0.6081  -0.5490  -0.3878  -0.3805  -0.2091  -0.1882   3.1802   3.7225
     4.5921   5.5211   5.6497   5.9064   7.0125   7.2306   8.0133   8.5819

          k = 0.2500-0.4419 0.0000 ( 11392 PWs)   bands (ev):

    -2.7267  -2.7179  -2.6938  -2.6320  -2.5442  -2.5219  -2.3676  -2.3118
    -2.2273  -2.1101  -2.0406  -1.9087  -1.7224  -1.5753  -1.5596  -1.4065
    -1.1601  -1.1566  -0.9749  -0.9608  -0.8950  -0.8342  -0.7728  -0.7281
    -0.6167  -0.4745  -0.2262  -0.1234   0.0154   0.0228   2.7199   3.1102
     3.8235   4.8099   5.9665   6.1549   7.0754   7.6396   8.0729   8.8431

          k = 0.2500-0.3094 0.0000 ( 11406 PWs)   bands (ev):

    -2.8182  -2.6772  -2.6308  -2.5850  -2.5354  -2.4692  -2.4045  -2.2988
    -2.1557  -2.0421  -2.0287  -1.9451  -1.5513  -1.5441  -1.3955  -1.3811
    -1.2198  -1.2054  -1.0901  -1.0365  -0.9883  -0.8930  -0.7677  -0.7433
    -0.5484  -0.5003  -0.4077  -0.3983  -0.2199  -0.1336   0.4723   0.8758
     1.6237   2.7036   4.1284   5.8295   7.4924   9.1742   9.7644   9.8332

          k = 0.2500-0.1768 0.0000 ( 11422 PWs)   bands (ev):

    -3.0506  -2.7035  -2.6453  -2.4647  -2.3001  -2.2787  -2.2671  -2.1826
    -2.0576  -1.8914  -1.8143  -1.7589  -1.5858  -1.5196  -1.4887  -1.4678
    -1.4052  -1.2726  -1.1921  -1.1017  -1.0695  -1.0556  -1.0471  -1.0122
    -0.9795  -0.9644  -0.8564  -0.7313  -0.7203  -0.3160  -0.2391  -0.0164
     0.4077   1.4281   2.8745   4.6226   6.0397   8.1910   8.6652   9.2717

          k = 0.2500-0.0442 0.0000 ( 11482 PWs)   bands (ev):

    -3.2770  -2.9441  -2.6358  -2.6132  -2.4038  -2.3652  -2.1482  -2.1334
    -2.0543  -2.0439  -1.9913  -1.9319  -1.9213  -1.7569  -1.6535  -1.6272
    -1.4310  -1.3605  -1.1895  -1.1850  -1.0832  -1.0546  -0.9855  -0.9412
    -0.8802  -0.8521  -0.7232  -0.7198  -0.5379  -0.4888  -0.3111  -0.1563
    -0.0322   0.9214   2.3766   4.0997   5.3830   7.7653   8.1347   8.7491

          k = 0.3750 0.1326 0.0000 ( 11401 PWs)   bands (ev):

    -3.0923  -3.0781  -2.9132  -2.8623  -2.6373  -2.6052  -2.5184  -2.4735
    -2.3767  -2.3249  -2.0618  -2.0348  -1.5161  -1.4186  -1.0856  -0.9464
    -0.8559  -0.8481  -0.8037  -0.7751  -0.7053  -0.6669  -0.6287  -0.5980
    -0.5279  -0.4303  -0.3543  -0.3204  -0.2104  -0.1573   0.4687   0.5282
     1.1991   2.4588   3.9876   5.5823   6.8123   7.1204   7.8346   8.0455

          k = 0.3750 0.2652 0.0000 ( 11400 PWs)   bands (ev):

    -2.9574  -2.9522  -2.7375  -2.7264  -2.5870  -2.5568  -2.4773  -2.4104
    -2.2913  -2.1916  -2.0411  -1.9976  -1.5090  -1.5021  -1.2201  -1.1536
    -1.0571  -0.8970  -0.8483  -0.7793  -0.7168  -0.6867  -0.6495  -0.6233
    -0.5910  -0.5689  -0.4579  -0.4128  -0.2163  -0.1993   1.4181   1.7574
     2.5236   3.6255   4.8654   5.5125   6.6152   6.9247   7.4947   8.1298

          k = 0.3750 0.3977 0.0000 ( 11399 PWs)   bands (ev):

    -2.7021  -2.6784  -2.5836  -2.5603  -2.3871  -2.3858  -2.2819  -2.2584
    -2.1649  -2.1635  -1.8804  -1.8256  -1.6967  -1.6911  -1.5926  -1.4525
    -1.1697  -1.1648  -1.1126  -1.0790  -0.9482  -0.7824  -0.6789  -0.6367
    -0.6081  -0.5490  -0.3878  -0.3805  -0.2091  -0.1882   3.1802   3.7225
     4.5921   5.5211   5.6497   5.9064   7.0125   7.2306   8.0133   8.5819

          k = 0.3750 0.5303 0.0000 ( 11360 PWs)   bands (ev):

    -2.8045  -2.7365  -2.7177  -2.6487  -2.6097  -2.5320  -2.3984  -2.3970
    -2.2692  -2.2613  -2.1193  -1.9486  -1.8538  -1.6155  -1.4264  -1.2420
    -0.9147  -0.8846  -0.8162  -0.6899  -0.6509  -0.6080  -0.5479  -0.4882
    -0.4567  -0.4118  -0.3866  -0.3864  -0.2124  -0.1930   5.2629   5.5440
     5.9139   6.1793   6.9151   6.9264   7.0824   7.2486   7.7266   8.1180

          k = 0.3750-0.3977 0.0000 ( 11395 PWs)   bands (ev):

    -3.0109  -2.9972  -2.9873  -2.7889  -2.7861  -2.7530  -2.5000  -2.4415
    -2.4240  -2.3537  -2.2173  -1.9111  -1.6938  -1.3270  -1.2818  -0.9300
    -0.8552  -0.8231  -0.8073  -0.7304  -0.5511  -0.4703  -0.4552  -0.3302
    -0.2874  -0.2001  -0.1189  -0.0481  -0.0315  -0.0050   2.9475   3.5830
     4.5148   5.5963   6.8344   7.7780   8.0455   8.3055   8.4082   8.7186

          k = 0.3750-0.2652 0.0000 ( 11394 PWs)   bands (ev):

    -3.0540  -2.9762  -2.9158  -2.7798  -2.7724  -2.6967  -2.4278  -2.4239
    -2.4181  -2.2782  -2.0960  -1.8145  -1.5726  -1.3172  -1.0281  -1.0167
    -1.0094  -0.8537  -0.8410  -0.7625  -0.5908  -0.5713  -0.4358  -0.4242
    -0.4166  -0.3020  -0.2130  -0.1545  -0.1170  -0.0724   0.9574   1.6597
     2.5962   3.7038   5.0506   6.6515   8.3039   9.6744   9.8047  10.0773

          k = 0.3750-0.1326 0.0000 ( 11406 PWs)   bands (ev):

    -2.8182  -2.6772  -2.6308  -2.5850  -2.5354  -2.4692  -2.4045  -2.2988
    -2.1557  -2.0421  -2.0287  -1.9451  -1.5513  -1.5441  -1.3955  -1.3811
    -1.2198  -1.2054  -1.0901  -1.0365  -0.9883  -0.8930  -0.7677  -0.7433
    -0.5484  -0.5003  -0.4077  -0.3983  -0.2199  -0.1336   0.4723   0.8758
     1.6237   2.7036   4.1284   5.8295   7.4924   9.1742   9.7644   9.8332

          k = 0.3750-0.0000 0.0000 ( 11413 PWs)   bands (ev):

    -2.8432  -2.8422  -2.6661  -2.6459  -2.3778  -2.3677  -2.3366  -2.2372
    -2.2189  -2.1948  -2.0967  -2.0288  -1.8880  -1.8872  -1.5860  -1.5212
    -1.1736  -1.1662  -0.9496  -0.9141  -0.8417  -0.8109  -0.7461  -0.7165
    -0.6086  -0.5886  -0.3567  -0.2677  -0.1866  -0.1320   0.3946   0.5600
     1.1496   2.2861   3.8045   5.5496   7.2808   7.9565   8.5625   8.9103

          k =-0.5000-0.1768 0.0000 ( 11418 PWs)   bands (ev):

    -3.1816  -3.1816  -2.9518  -2.9514  -2.6586  -2.6581  -2.5825  -2.5821
    -2.4156  -2.4153  -2.1414  -2.1404  -1.2761  -1.2759  -0.9001  -0.9000
    -0.7950  -0.7938  -0.7877  -0.7877  -0.6530  -0.6520  -0.6025  -0.6020
    -0.3816  -0.3812  -0.1898  -0.1896   0.0903   0.0904   2.8748   2.8753
     2.9567   2.9567   3.3970   3.3981   6.2638   6.2643   7.2913   7.2917

          k =-0.5000-0.0442 0.0000 ( 11392 PWs)   bands (ev):

    -3.0042  -2.9967  -2.7754  -2.7683  -2.5351  -2.5345  -2.4284  -2.4161
    -2.2510  -2.2369  -2.1149  -2.0712  -1.6993  -1.5513  -1.3003  -1.1878
    -0.9481  -0.9389  -0.8408  -0.8291  -0.8029  -0.7474  -0.6985  -0.6952
    -0.6384  -0.5584  -0.1728  -0.1649   0.0547   0.0986   2.6196   2.8069
     3.2764   3.9334   4.2746   4.3440   6.4466   6.5736   7.3528   7.8431

          k =-0.5000 0.0884 0.0000 ( 11392 PWs)   bands (ev):

    -2.7267  -2.7179  -2.6938  -2.6320  -2.5442  -2.5219  -2.3676  -2.3118
    -2.2273  -2.1101  -2.0406  -1.9087  -1.7224  -1.5753  -1.5596  -1.4065
    -1.1601  -1.1566  -0.9749  -0.9608  -0.8950  -0.8342  -0.7728  -0.7281
    -0.6167  -0.4745  -0.2262  -0.1234   0.0154   0.0228   2.7199   3.1102
     3.8235   4.8099   5.9665   6.1549   7.0754   7.6396   8.0729   8.8431

          k =-0.5000 0.2210 0.0000 ( 11395 PWs)   bands (ev):

    -3.0109  -2.9972  -2.9873  -2.7889  -2.7861  -2.7530  -2.5000  -2.4415
    -2.4240  -2.3537  -2.2173  -1.9111  -1.6938  -1.3270  -1.2818  -0.9300
    -0.8552  -0.8231  -0.8073  -0.7304  -0.5511  -0.4703  -0.4552  -0.3302
    -0.2874  -0.2001  -0.1189  -0.0481  -0.0315  -0.0050   2.9475   3.5830
     4.5148   5.5963   6.8344   7.7780   8.0455   8.3055   8.4082   8.7186

          k =-0.5000-0.7071 0.0000 ( 11406 PWs)   bands (ev):

    -3.1834  -3.1604  -3.1294  -2.9663  -2.9406  -2.8627  -2.6185  -2.5889
    -2.5129  -2.3914  -2.1811  -1.8220  -1.6382  -1.2544  -1.0387  -0.9661
    -0.9489  -0.8141  -0.7911  -0.6519  -0.5211  -0.3369  -0.1519  -0.1036
    -0.0310  -0.0092   0.0815   0.1693   0.2830   0.2843   3.1492   4.0302
     5.2435   6.5589   6.6062   6.7785   7.1644   7.7549   7.8628   8.6029

     the Fermi energy is     2.8042 ev

!    total energy              =    -505.72610602 Ry
     estimated scf accuracy    <          2.1E-09 Ry
     smearing contrib. (-TS)   =      -0.00143491 Ry
     internal energy E=F+TS    =    -505.72467111 Ry

     The total energy is F=E-TS. E is the sum of the following terms:
     one-electron contribution =   -6260.91261522 Ry
     hartree contribution      =    3180.15175238 Ry
     xc contribution           =    -133.86338852 Ry
     ewald contribution        =    2709.06695882 Ry
     DFT-D3 Dispersion         =      -0.16737857 Ry

     convergence has been achieved in   6 iterations

     negative rho (up, down):  1.391E-05 0.000E+00

     Forces acting on atoms (cartesian axes, Ry/au):

     atom    1 type  1   force =    -0.00000016   -0.00000003   -0.00203790
     atom    2 type  1   force =     0.00000024   -0.00000029   -0.00267349
     atom    3 type  1   force =    -0.00000008    0.00000017   -0.00028008
     atom    4 type  1   force =    -0.00000007   -0.00000003   -0.00002623
     atom    5 type  1   force =     0.00000016    0.00000007    0.00309049
     atom    6 type  1   force =    -0.00000010    0.00000011    0.00192721
     The non-local contrib.  to forces
     atom    1 type  1   force =    -0.00000013    0.00000000    0.06001459
     atom    2 type  1   force =     0.00000023   -0.00000032    0.03311193
     atom    3 type  1   force =    -0.00000020    0.00000034    0.00709818
     atom    4 type  1   force =     0.00000003    0.00000005   -0.00741633
     atom    5 type  1   force =     0.00000015    0.00000012   -0.03274839
     atom    6 type  1   force =    -0.00000021    0.00000015   -0.06007595
     The ionic contribution  to forces
     atom    1 type  1   force =    -0.00000104   -0.00000163  152.22230840
     atom    2 type  1   force =     0.00000185    0.00000224   91.80204330
     atom    3 type  1   force =    -0.00000082   -0.00000061   30.57193425
     atom    4 type  1   force =     0.00000001   -0.00000000  -30.60353852
     atom    5 type  1   force =    -0.00000000   -0.00000000  -91.77822165
     atom    6 type  1   force =     0.00000000    0.00000000 -152.21452577
     The local contribution  to forces
     atom    1 type  1   force =     0.00000113    0.00000161 -152.27768108
     atom    2 type  1   force =    -0.00000172   -0.00000214  -91.83422817
     atom    3 type  1   force =     0.00000080    0.00000058  -30.57907464
     atom    4 type  1   force =    -0.00000003   -0.00000001   30.61066885
     atom    5 type  1   force =    -0.00000006    0.00000002   91.81053126
     atom    6 type  1   force =     0.00000011    0.00000001  152.26982277
     The core correction contribution to forces
     atom    1 type  1   force =     0.00000002    0.00000001   -0.00491055
     atom    2 type  1   force =     0.00000000   -0.00000000   -0.00004978
     atom    3 type  1   force =     0.00000000    0.00000000    0.00021853
     atom    4 type  1   force =    -0.00000000   -0.00000000   -0.00016905
     atom    5 type  1   force =    -0.00000000    0.00000000   -0.00001687
     atom    6 type  1   force =     0.00000001   -0.00000000    0.00492661
     The Hubbard contrib.    to forces
     atom    1 type  1   force =     0.00000000    0.00000000    0.00000000
     atom    2 type  1   force =     0.00000000    0.00000000    0.00000000
     atom    3 type  1   force =     0.00000000    0.00000000    0.00000000
     atom    4 type  1   force =     0.00000000    0.00000000    0.00000000
     atom    5 type  1   force =     0.00000000    0.00000000    0.00000000
     atom    6 type  1   force =     0.00000000    0.00000000    0.00000000
     The SCF correction term to forces
     atom    1 type  1   force =    -0.00000014    0.00000006    0.00006471
     atom    2 type  1   force =    -0.00000011    0.00000002    0.00000278
     atom    3 type  1   force =     0.00000000   -0.00000000   -0.00000000
     atom    4 type  1   force =    -0.00000000    0.00000000    0.00000000
     atom    5 type  1   force =     0.00000000    0.00000000    0.00000000
     atom    6 type  1   force =    -0.00000000    0.00000000   -0.00000000

     DFT-D3 dispersion contribution to forces:
     atom    1 type  1   force =     0.00000000    0.00000001   -0.00183705
     atom    2 type  1   force =    -0.00000001   -0.00000001   -0.00355663
     atom    3 type  1   force =     0.00000001   -0.00000000   -0.00038359
     atom    4 type  1   force =     0.00000000   -0.00000000    0.00041060
     atom    5 type  1   force =     0.00000000    0.00000000    0.00353002
     atom    6 type  1   force =    -0.00000000    0.00000000    0.00183665

     Total force =     0.003362     Total SCF correction =     0.000065


     Computing stress (Cartesian axis) and pressure


     negative rho (up, down):  1.391E-05 0.000E+00
          total   stress  (Ry/bohr**3)                   (kbar)     P=      -24.03
  -0.00018813  -0.00001230  -0.00000000          -27.68       -1.81       -0.00
[...]
    -0.5935  -0.5688  -0.4571  -0.4102  -0.2087  -0.1952   1.4091   1.7491
     2.5296   3.6321   4.8811   5.5088   6.6248   6.9407   7.5318   8.1492

          k = 0.1250-0.4861 0.0000 ( 11392 PWs)   bands (ev):

    -3.0331  -3.0227  -2.7965  -2.7906  -2.5561  -2.5382  -2.4440  -2.4233
    -2.2661  -2.2454  -2.1169  -2.0762  -1.7181  -1.5709  -1.3079  -1.1927
    -0.9547  -0.9423  -0.8415  -0.8315  -0.8051  -0.7476  -0.7011  -0.6937
    -0.6337  -0.5582  -0.1702  -0.1595   0.0621   0.1090   2.6139   2.7996
     3.2757   3.9319   4.2641   4.3403   6.4592   6.5894   7.3817   7.8798

          k = 0.1250-0.3536 0.0000 ( 11413 PWs)   bands (ev):

    -2.8725  -2.8703  -2.6895  -2.6677  -2.3992  -2.3797  -2.3416  -2.2487
    -2.2393  -2.2121  -2.1081  -2.0367  -1.9055  -1.8930  -1.5932  -1.5262
    -1.1826  -1.1676  -0.9492  -0.9203  -0.8406  -0.8129  -0.7477  -0.7109
    -0.6077  -0.5827  -0.3542  -0.2602  -0.1821  -0.1200   0.3928   0.5552
     1.1549   2.2942   3.8345   5.5896   7.3130   7.9479   8.5627   8.9504

          k = 0.1250-0.2210 0.0000 ( 11482 PWs)   bands (ev):

    -3.3107  -2.9719  -2.6691  -2.6248  -2.4304  -2.3768  -2.1720  -2.1416
    -2.0892  -2.0486  -1.9953  -1.9410  -1.9339  -1.7634  -1.6611  -1.6274
    -1.4408  -1.3648  -1.1976  -1.1855  -1.0802  -1.0539  -0.9776  -0.9397
    -0.8838  -0.8501  -0.7231  -0.7146  -0.5394  -0.4841  -0.3012  -0.1420
    -0.0192   0.9319   2.4054   4.1344   5.4150   7.8026   8.1376   8.7476

          k = 0.1250-0.0884 0.0000 ( 11507 PWs)   bands (ev):

    -3.9807  -3.4973  -2.9951  -2.9273  -2.6860  -2.5820  -2.3259  -2.2290
    -2.0312  -1.9826  -1.8879  -1.8699  -1.8061  -1.7011  -1.6669  -1.6272
    -1.6026  -1.5158  -1.3888  -1.2270  -1.1659  -1.1248  -1.0100  -0.9951
    -0.9017  -0.8250  -0.6877  -0.6430  -0.6273  -0.5678  -0.4057  -0.1948
     0.0948   0.1616   1.4897   3.1854   4.1334   7.1974   7.3836   8.0051

          k = 0.2500 0.0884 0.0000 ( 11469 PWs)   bands (ev):

    -3.2905  -3.0992  -2.8687  -2.7628  -2.6173  -2.5814  -2.3199  -2.3010
    -2.2439  -2.1987  -2.1343  -2.0075  -1.7136  -1.5681  -1.4826  -1.4282
    -1.2123  -1.1637  -1.0306  -0.9443  -0.9221  -0.9040  -0.8687  -0.8437
    -0.7599  -0.6552  -0.6180  -0.5877  -0.5469  -0.5076  -0.4549  -0.4336
    -0.0401   1.1156   2.6271   4.3288   5.6943   7.8851   8.2487   8.8551

          k = 0.2500 0.2210 0.0000 ( 11436 PWs)   bands (ev):

    -2.8717  -2.8288  -2.7027  -2.6349  -2.5612  -2.4751  -2.4362  -2.2732
    -2.2180  -2.1473  -2.0400  -1.8499  -1.6715  -1.6539  -1.5078  -1.4892
    -1.2829  -1.2182  -1.1901  -1.0462  -0.9666  -0.8453  -0.7089  -0.6690
    -0.6529  -0.6327  -0.5872  -0.5816  -0.5601  -0.5224  -0.1632   0.0624
     0.8409   2.0374   3.5348   5.2148   6.8021   8.4927   9.0082   9.1601

          k = 0.2500 0.3536 0.0000 ( 11393 PWs)   bands (ev):

    -2.6905  -2.6785  -2.4766  -2.4597  -2.3152  -2.2598  -2.2454  -2.2320
    -2.1579  -2.0778  -2.0564  -1.8344  -1.6719  -1.5852  -1.5372  -1.5152
    -1.4492  -1.3246  -1.2757  -1.2176  -0.9665  -0.8242  -0.7587  -0.6406
    -0.5940  -0.5893  -0.5892  -0.5694  -0.4793  -0.4534   1.0275   1.5182
     2.4185   3.6030   5.0561   6.6879   8.4790   8.5976   9.0733   9.1100

          k = 0.2500 0.4861 0.0000 ( 11399 PWs)   bands (ev):

    -2.7383  -2.7033  -2.6091  -2.5801  -2.4197  -2.4017  -2.3039  -2.2754
    -2.1847  -2.1649  -1.8993  -1.8306  -1.7046  -1.6944  -1.5989  -1.4565
    -1.1754  -1.1643  -1.1156  -1.0782  -0.9429  -0.7773  -0.6711  -0.6309
    -0.6018  -0.5439  -0.3844  -0.3754  -0.2036  -0.1802   3.1674   3.7152
     4.6016   5.5183   5.6523   5.9015   7.0237   7.2565   8.0358   8.6162

          k = 0.2500-0.4419 0.0000 ( 11392 PWs)   bands (ev):

    -2.7659  -2.7422  -2.7112  -2.6653  -2.5628  -2.5464  -2.3843  -2.3323
    -2.2419  -2.1252  -2.0483  -1.9155  -1.7308  -1.5853  -1.5655  -1.4098
    -1.1699  -1.1553  -0.9783  -0.9591  -0.8902  -0.8324  -0.7628  -0.7216
    -0.6068  -0.4661  -0.2187  -0.1204   0.0204   0.0349   2.7128   3.1045
     3.8309   4.8173   5.9809   6.1435   7.0828   7.6573   8.1104   8.8582

          k = 0.2500-0.3094 0.0000 ( 11406 PWs)   bands (ev):

    -2.8500  -2.7067  -2.6574  -2.6144  -2.5540  -2.4897  -2.4223  -2.3260
    -2.1649  -2.0608  -2.0395  -1.9563  -1.5650  -1.5468  -1.4026  -1.3821
    -1.2268  -1.2081  -1.0831  -1.0457  -0.9809  -0.8901  -0.7564  -0.7427
    -0.5399  -0.4987  -0.4076  -0.3968  -0.2091  -0.1130   0.4678   0.8734
     1.6369   2.7138   4.1609   5.8718   7.5243   9.2140   9.7517   9.8396

          k = 0.2500-0.1768 0.0000 ( 11422 PWs)   bands (ev):

    -3.0844  -2.7350  -2.6731  -2.4858  -2.3354  -2.2834  -2.2743  -2.2259
    -2.0610  -1.9231  -1.8238  -1.7780  -1.5982  -1.5395  -1.4932  -1.4750
    -1.4084  -1.2653  -1.1913  -1.1011  -1.0650  -1.0570  -1.0348  -1.0059
    -0.9765  -0.9605  -0.8551  -0.7397  -0.7147  -0.3017  -0.2315   0.0086
     0.4245   1.4381   2.9055   4.6602   6.0699   8.2301   8.6691   9.2711

          k = 0.2500-0.0442 0.0000 ( 11482 PWs)   bands (ev):

    -3.3107  -2.9719  -2.6691  -2.6248  -2.4304  -2.3768  -2.1720  -2.1416
    -2.0892  -2.0486  -1.9953  -1.9410  -1.9339  -1.7634  -1.6611  -1.6274
    -1.4408  -1.3648  -1.1976  -1.1855  -1.0802  -1.0539  -0.9776  -0.9397
    -0.8838  -0.8501  -0.7231  -0.7146  -0.5394  -0.4841  -0.3012  -0.1420
    -0.0192   0.9319   2.4054   4.1344   5.4150   7.8026   8.1376   8.7476

          k = 0.3750 0.1326 0.0000 ( 11401 PWs)   bands (ev):

    -3.1196  -3.1029  -2.9310  -2.8778  -2.6521  -2.6091  -2.5277  -2.4877
    -2.3888  -2.3358  -2.0732  -2.0378  -1.5350  -1.4341  -1.0939  -0.9525
    -0.8676  -0.8498  -0.8062  -0.7807  -0.7051  -0.6691  -0.6291  -0.6000
    -0.5301  -0.4322  -0.3522  -0.3185  -0.2043  -0.1541   0.4677   0.5209
     1.2015   2.4656   4.0140   5.6074   6.8181   7.1209   7.8685   8.0647

          k = 0.3750 0.2652 0.0000 ( 11400 PWs)   bands (ev):

    -2.9848  -2.9781  -2.7572  -2.7456  -2.6050  -2.5704  -2.4899  -2.4167
    -2.3034  -2.2019  -2.0468  -2.0011  -1.5256  -1.5160  -1.2273  -1.1590
    -1.0657  -0.9029  -0.8462  -0.7813  -0.7195  -0.6867  -0.6515  -0.6216
    -0.5935  -0.5688  -0.4571  -0.4102  -0.2087  -0.1952   1.4091   1.7491
     2.5296   3.6321   4.8811   5.5088   6.6248   6.9407   7.5318   8.1492

          k = 0.3750 0.3977 0.0000 ( 11399 PWs)   bands (ev):

    -2.7383  -2.7033  -2.6091  -2.5801  -2.4197  -2.4017  -2.3039  -2.2754
    -2.1847  -2.1649  -1.8993  -1.8306  -1.7046  -1.6944  -1.5989  -1.4565
    -1.1754  -1.1643  -1.1156  -1.0782  -0.9429  -0.7773  -0.6711  -0.6309
    -0.6018  -0.5439  -0.3844  -0.3754  -0.2036  -0.1802   3.1674   3.7152
     4.6016   5.5183   5.6523   5.9015   7.0237   7.2565   8.0358   8.6162

          k = 0.3750 0.5303 0.0000 ( 11360 PWs)   bands (ev):

    -2.8321  -2.7684  -2.7427  -2.6841  -2.6332  -2.5500  -2.4388  -2.4095
    -2.2723  -2.2699  -2.1237  -1.9540  -1.8736  -1.6227  -1.4341  -1.2439
    -0.9131  -0.8816  -0.8170  -0.6818  -0.6437  -0.6054  -0.5459  -0.4818
    -0.4544  -0.4056  -0.3831  -0.3754  -0.2065  -0.1823   5.2508   5.5299
     5.9069   6.1722   6.9143   6.9407   7.0871   7.2564   7.7291   8.1294

          k = 0.3750-0.3977 0.0000 ( 11395 PWs)   bands (ev):

    -3.0424  -3.0245  -3.0128  -2.8116  -2.8025  -2.7752  -2.5376  -2.4514
    -2.4300  -2.3624  -2.2435  -1.9222  -1.7028  -1.3356  -1.2826  -0.9265
    -0.8521  -0.8175  -0.7964  -0.7269  -0.5503  -0.4685  -0.4529  -0.3278
    -0.2781  -0.1968  -0.1158  -0.0422  -0.0316  -0.0003   2.9345   3.5766
     4.5292   5.6081   6.8655   7.7757   8.0498   8.3401   8.3951   8.7305

          k = 0.3750-0.2652 0.0000 ( 11394 PWs)   bands (ev):

    -3.0845  -3.0049  -2.9415  -2.8013  -2.7877  -2.7189  -2.4615  -2.4387
    -2.4231  -2.2857  -2.1288  -1.8284  -1.5761  -1.3173  -1.0233  -1.0231
    -1.0188  -0.8397  -0.8337  -0.7588  -0.5935  -0.5705  -0.4455  -0.4205
    -0.4124  -0.2955  -0.2127  -0.1464  -0.1164  -0.0551   0.9441   1.6558
     2.6135   3.7154   5.0844   6.6952   8.3353   9.6713   9.8463  10.0763

          k = 0.3750-0.1326 0.0000 ( 11406 PWs)   bands (ev):

    -2.8500  -2.7067  -2.6574  -2.6144  -2.5540  -2.4897  -2.4223  -2.3260
    -2.1649  -2.0608  -2.0395  -1.9563  -1.5650  -1.5468  -1.4026  -1.3821
    -1.2268  -1.2081  -1.0831  -1.0457  -0.9809  -0.8901  -0.7564  -0.7427
    -0.5399  -0.4987  -0.4076  -0.3968  -0.2091  -0.1130   0.4678   0.8734
     1.6369   2.7138   4.1609   5.8718   7.5243   9.2140   9.7517   9.8396

          k = 0.3750-0.0000 0.0000 ( 11413 PWs)   bands (ev):

    -2.8725  -2.8703  -2.6895  -2.6677  -2.3992  -2.3797  -2.3416  -2.2487
    -2.2393  -2.2121  -2.1081  -2.0367  -1.9055  -1.8930  -1.5932  -1.5262
    -1.1826  -1.1676  -0.9492  -0.9203  -0.8406  -0.8129  -0.7477  -0.7109
    -0.6077  -0.5827  -0.3542  -0.2602  -0.1821  -0.1200   0.3928   0.5552
     1.1549   2.2942   3.8345   5.5896   7.3130   7.9479   8.5627   8.9504

          k =-0.5000-0.1768 0.0000 ( 11418 PWs)   bands (ev):

    -3.2098  -3.2060  -2.9701  -2.9692  -2.6713  -2.6551  -2.6022  -2.5898
    -2.4314  -2.4207  -2.1546  -2.1403  -1.2957  -1.2845  -0.9088  -0.8996
    -0.8138  -0.7964  -0.7888  -0.7875  -0.6643  -0.6511  -0.6094  -0.5973
    -0.3837  -0.3823  -0.1935  -0.1849   0.0980   0.1002   2.8649   2.8670
     2.9486   2.9551   3.3829   3.4006   6.2686   6.2793   7.3170   7.3420

          k =-0.5000-0.0442 0.0000 ( 11392 PWs)   bands (ev):

    -3.0331  -3.0227  -2.7965  -2.7906  -2.5561  -2.5382  -2.4440  -2.4233
    -2.2661  -2.2454  -2.1169  -2.0762  -1.7181  -1.5709  -1.3079  -1.1927
    -0.9547  -0.9423  -0.8415  -0.8315  -0.8051  -0.7476  -0.7011  -0.6937
    -0.6337  -0.5582  -0.1702  -0.1595   0.0621   0.1090   2.6139   2.7996
     3.2757   3.9319   4.2641   4.3403   6.4592   6.5894   7.3817   7.8798

          k =-0.5000 0.0884 0.0000 ( 11392 PWs)   bands (ev):

    -2.7659  -2.7422  -2.7112  -2.6653  -2.5628  -2.5464  -2.3843  -2.3323
    -2.2419  -2.1252  -2.0483  -1.9155  -1.7308  -1.5853  -1.5655  -1.4098
    -1.1699  -1.1553  -0.9783  -0.9591  -0.8902  -0.8324  -0.7628  -0.7216
    -0.6068  -0.4661  -0.2187  -0.1204   0.0204   0.0349   2.7128   3.1045
     3.8309   4.8173   5.9809   6.1435   7.0828   7.6573   8.1104   8.8582

          k =-0.5000 0.2210 0.0000 ( 11395 PWs)   bands (ev):

    -3.0424  -3.0245  -3.0128  -2.8116  -2.8025  -2.7752  -2.5376  -2.4514
    -2.4300  -2.3624  -2.2435  -1.9222  -1.7028  -1.3356  -1.2826  -0.9265
    -0.8521  -0.8175  -0.7964  -0.7269  -0.5503  -0.4685  -0.4529  -0.3278
    -0.2781  -0.1968  -0.1158  -0.0422  -0.0316  -0.0003   2.9345   3.5766
     4.5292   5.6081   6.8655   7.7757   8.0498   8.3401   8.3951   8.7305

          k =-0.5000-0.7071 0.0000 ( 11406 PWs)   bands (ev):

    -3.2158  -3.1853  -3.1570  -2.9848  -2.9557  -2.8866  -2.6269  -2.5922
    -2.5564  -2.3974  -2.2141  -1.8358  -1.6412  -1.2496  -1.0512  -0.9612
    -0.9499  -0.7977  -0.7754  -0.6560  -0.5070  -0.3355  -0.1257  -0.0982
    -0.0451  -0.0115   0.0826   0.1705   0.2775   0.2866   3.1283   4.0209
     5.2649   6.5723   6.6077   6.7808   7.1667   7.7698   7.9111   8.6234

     the Fermi energy is     2.8070 ev

!    total energy              =    -505.72635696 Ry
     estimated scf accuracy    <          2.9E-09 Ry
     smearing contrib. (-TS)   =      -0.00157673 Ry
     internal energy E=F+TS    =    -505.72478023 Ry

     The total energy is F=E-TS. E is the sum of the following terms:
     one-electron contribution =   -6317.39932106 Ry
     hartree contribution      =    3208.38896391 Ry
     xc contribution           =    -133.87702387 Ry
     ewald contribution        =    2737.33056542 Ry
     DFT-D3 Dispersion         =      -0.16796463 Ry

     convergence has been achieved in   8 iterations

     negative rho (up, down):  1.572E-05 0.000E+00

     Forces acting on atoms (cartesian axes, Ry/au):

     atom    1 type  1   force =     0.00000012   -0.00000032    0.00005547
     atom    2 type  1   force =     0.00000029    0.00000064    0.00009900
     atom    3 type  1   force =    -0.00000005   -0.00000026   -0.00513563
     atom    4 type  1   force =    -0.00000015    0.00000016   -0.00007497
     atom    5 type  1   force =    -0.00000003   -0.00000016    0.00313472
     atom    6 type  1   force =    -0.00000018   -0.00000005    0.00192141
     The non-local contrib.  to forces
     atom    1 type  1   force =     0.00000016   -0.00000020    0.06194126
     atom    2 type  1   force =     0.00000014    0.00000046    0.03579641
     atom    3 type  1   force =    -0.00000009   -0.00000024    0.00202902
     atom    4 type  1   force =     0.00000007   -0.00000001   -0.00795376
     atom    5 type  1   force =     0.00000016   -0.00000009   -0.03275831
     atom    6 type  1   force =    -0.00000008   -0.00000005   -0.05988061
     The ionic contribution  to forces
     atom    1 type  1   force =    -0.00000782   -0.00001277  153.23128867
     atom    2 type  1   force =     0.00001480    0.00000780   92.32869025
     atom    3 type  1   force =    -0.00000714    0.00000508   30.24749305
     atom    4 type  1   force =     0.00000016   -0.00000011  -31.00761860
     atom    5 type  1   force =    -0.00000000    0.00000000  -92.18177364
     atom    6 type  1   force =     0.00000000   -0.00000000 -152.61807973
     The local contribution  to forces
     atom    1 type  1   force =     0.00000771    0.00001231 -153.28569269
     atom    2 type  1   force =    -0.00001479   -0.00000765  -92.36024327
     atom    3 type  1   force =     0.00000710   -0.00000503  -30.25564644
     atom    4 type  1   force =    -0.00000020    0.00000023   31.01511458
     atom    5 type  1   force =     0.00000001   -0.00000005   92.21413816
     atom    6 type  1   force =     0.00000005    0.00000002  152.67312140
     The core correction contribution to forces
     atom    1 type  1   force =     0.00000003    0.00000003   -0.00523977
     atom    2 type  1   force =    -0.00000005   -0.00000004   -0.00041885
     atom    3 type  1   force =     0.00000000   -0.00000000    0.00094306
     atom    4 type  1   force =     0.00000001    0.00000001   -0.00015745
     atom    5 type  1   force =    -0.00000000   -0.00000000   -0.00001882
     atom    6 type  1   force =     0.00000001    0.00000000    0.00492622
     The Hubbard contrib.    to forces
     atom    1 type  1   force =     0.00000000    0.00000000    0.00000000
     atom    2 type  1   force =     0.00000000    0.00000000    0.00000000
     atom    3 type  1   force =     0.00000000    0.00000000    0.00000000
     atom    4 type  1   force =     0.00000000    0.00000000    0.00000000
     atom    5 type  1   force =     0.00000000    0.00000000    0.00000000
     atom    6 type  1   force =     0.00000000    0.00000000    0.00000000
     The SCF correction term to forces
     atom    1 type  1   force =     0.00000016    0.00000024   -0.00010624
     atom    2 type  1   force =     0.00000045    0.00000002    0.00007144
     atom    3 type  1   force =     0.00000000   -0.00000000    0.00000000
     atom    4 type  1   force =    -0.00000000    0.00000000   -0.00000000
     atom    5 type  1   force =    -0.00000000   -0.00000000    0.00000000
     atom    6 type  1   force =    -0.00000000   -0.00000000   -0.00000000

     DFT-D3 dispersion contribution to forces:
     atom    1 type  1   force =     0.00000001    0.00000005   -0.00213323
     atom    2 type  1   force =    -0.00000013    0.00000003   -0.00379443
     atom    3 type  1   force =     0.00000011   -0.00000008   -0.00000769
     atom    4 type  1   force =     0.00000000   -0.00000000    0.00054692
     atom    5 type  1   force =     0.00000000   -0.00000000    0.00354862
     atom    6 type  1   force =    -0.00000000    0.00000000    0.00183982

     Total force =     0.000113     Total SCF correction =     0.000128
     SCF correction compared to forces is large: reduce conv_thr to get better values


     Computing stress (Cartesian axis) and pressure


     negative rho (up, down):  1.572E-05 0.000E+00
          total   stress  (Ry/bohr**3)                   (kbar)     P=      -22.21
  -0.00018009  -0.00000845  -0.00000000          -26.49       -1.24       -0.00
  -0.00000845  -0.00018606  -0.00000000           -1.24      -27.37       -0.00
  -0.00000000  -0.00000000  -0.00008675           -0.00       -0.00      -12.76

     Energy error            =      7.4E-06 Ry
     Gradient error          =      9.9E-05 Ry/Bohr

     bfgs converged in  13 scf cycles and  12 bfgs steps
     (criteria: energy <  1.0E-04 Ry, force <  1.0E-03 Ry/Bohr)

     End of BFGS Geometry Optimization

     Final energy             =    -505.7263569594 Ry

     File ./Ag_110/Ag_110.bfgs deleted, as requested
Begin final coordinates

ATOMIC_POSITIONS (angstrom)
Ag           -0.0000326085        2.0277892996       21.6354418350
Ag            1.9117508819        0.6759418161       19.3157790530
Ag            0.0000000000        2.0277537470       17.0243450301    0   0   0
Ag            1.9117845668        0.6759179157       14.6828966867    0   0   0
Ag            0.0000000000        2.0277537470       12.3414483434    0   0   0
Ag            1.9117845668        0.6759179157       10.0000000000    0   0   0
End final coordinates



     Writing all to output data dir ./Ag_110/Ag_110.save/

     init_run     :      5.99s CPU      6.42s WALL (       1 calls)
     electrons    :     40.63s CPU     45.88s WALL (      13 calls)
     update_pot   :      2.05s CPU      2.15s WALL (      12 calls)
     forces       :      2.08s CPU      2.35s WALL (      13 calls)
     force_dftd3  :      0.06s CPU      0.12s WALL (      13 calls)
     stress       :      8.86s CPU      9.03s WALL (      13 calls)
     stres_dftd3  :      0.05s CPU      0.06s WALL (      13 calls)

     Called by init_run:
     wfcinit      :      0.39s CPU      0.60s WALL (       1 calls)
     potinit      :      1.82s CPU      1.83s WALL (       1 calls)
     hinit0       :      3.72s CPU      3.91s WALL (       1 calls)

     Called by electrons:
     c_bands      :     33.59s CPU     36.45s WALL (     111 calls)
     sum_band     :      4.94s CPU      5.48s WALL (     111 calls)
     v_of_rho     :      1.08s CPU      1.48s WALL (     112 calls)
     newd         :      0.68s CPU      0.69s WALL (     112 calls)
     mix_rho      :      0.13s CPU      0.14s WALL (     111 calls)
     energy_dftd3 :      0.02s CPU      0.03s WALL (      13 calls)

     Called by c_bands:
     init_us_2    :      0.26s CPU      0.28s WALL (    2241 calls)
     init_us_2:cp :      0.26s CPU      0.28s WALL (    2241 calls)
     cegterg      :     30.99s CPU     32.88s WALL (     999 calls)

     Called by *egterg:
     cdiaghg      :      7.47s CPU      7.56s WALL (    3751 calls)
     h_psi        :     18.82s CPU     20.43s WALL (    3976 calls)
     s_psi        :      0.92s CPU      0.95s WALL (    3976 calls)
     g_psi        :      0.09s CPU      0.09s WALL (    2968 calls)

     Called by h_psi:
     h_psi:calbec :      1.46s CPU      1.67s WALL (    3976 calls)
     vloc_psi     :     16.42s CPU     17.75s WALL (    3976 calls)
     add_vuspsi   :      0.88s CPU      0.95s WALL (    3976 calls)

     General routines
     calbec       :      2.60s CPU      2.89s WALL (    5560 calls)
     fft          :      4.88s CPU      5.36s WALL (    1779 calls)
     ffts         :      1.83s CPU      2.27s WALL (     223 calls)
     fftw         :     17.15s CPU     18.50s WALL (  250008 calls)
     interpolate  :      1.86s CPU      2.18s WALL (     112 calls)

     Parallel routines

     PWSCF        :   1m 0.03s CPU   1m 7.15s WALL


   This run was terminated on:  11:26:41  18Jul2025            

=------------------------------------------------------------------------------=
   JOB DONE.
=------------------------------------------------------------------------------=
