
     Program PWSCF v.7.2 starts on 24Jul2025 at  5:32: 3 

     This program is part of the open-source Quantum ESPRESSO suite
     for quantum simulation of materials; please cite
         "P. Giannozzi et al., J. Phys.:Condens. Matter 21 395502 (2009);
         "P. Giannozzi et al., J. Phys.:Condens. Matter 29 465901 (2017);
         "P. Giannozzi et al., J. Chem. Phys. 152 154105 (2020);
          URL http://www.quantum-espresso.org", 
     in publications or presentations arising from this work. More details at
     http://www.quantum-espresso.org/quote

     Parallel version (MPI & OpenMP), running on     192 processor cores
     Number of MPI processes:               192
     Threads/MPI process:                     1

     MPI processes distributed on     3 nodes
     243956 MiB available memory on the printing compute node when the environment starts

     Reading input from Ag_mp-2646971_110_bridge_0.in

     Current dimensions of program PWSCF are:
     Max number of different atomic species (ntypx) = 10
     Max number of k-points (npk) =  40000
     Max angular momentum in pseudopotentials (lmaxx) =  4
     Message from routine iosys:
     restart disabled: needed files not found

     K-points division:     npool     =       4
     R & G space division:  proc/nbgrp/npool/nimage =      48
     Subspace diagonalization in iterative solution of the eigenvalue problem:
     a serial algorithm will be used


     Parallelization info
     --------------------
     sticks:   dense  smooth     PW     G-vecs:    dense   smooth      PW
     Min          23      10      3                 6513     1878     342
     Max          24      11      4                 6550     1914     361
     Sum        1105     483    159               313371    91489   16791

     Using Slab Decomposition



     bravais-lattice index     =            0
     lattice parameter (alat)  =       5.4191  a.u.
     unit-cell volume          =    1658.9726 (a.u.)^3
     number of atoms/cell      =            7
     number of atomic types    =            2
     number of electrons       =        69.00
     number of Kohn-Sham states=           42
     kinetic-energy cutoff     =      55.0000  Ry
     charge density cutoff     =     500.0000  Ry
     scf convergence threshold =      1.0E-06
     mixing beta               =       0.3000
     number of iterations used =            8  plain     mixing
     energy convergence thresh.=      1.0E-04
     force convergence thresh. =      1.0E-03
     Exchange-correlation= PBE
                           (   1   4   3   4   0   0   0)
     nstep                     =          500


     celldm(1)=   5.419124  celldm(2)=   0.000000  celldm(3)=   0.000000
     celldm(4)=   0.000000  celldm(5)=   0.000000  celldm(6)=   0.000000

     crystal axes: (cart. coord. in units of alat)
               a(1) = (   1.000000   0.000000   0.000000 )  
               a(2) = (  -0.333333   0.942809   0.000000 )  
               a(3) = (   0.000000   0.000000  11.056769 )  

     reciprocal axes: (cart. coord. in units 2 pi/alat)
               b(1) = (  1.000000  0.353553 -0.000000 )  
               b(2) = (  0.000000  1.060660  0.000000 )  
               b(3) = ( -0.000000 -0.000000  0.090442 )  


     PseudoPot. # 1 for Li read from file:
     /home/ecastro/trabajo_final/pseudos/Li.pbe-s-rrkjus_psl.1.0.0.UPF
     MD5 check sum: 9f98d2529904d60b716d33989e9bc179
     Pseudo is Ultrasoft, Zval =  3.0
     Generated using &quot;atomic&quot; code by A. Dal Corso  v.6.3MaX
     Using radial grid of 1017 points,  4 beta functions with: 
                l(1) =   0
                l(2) =   0
                l(3) =   1
                l(4) =   1
     Q(r) pseudized with 0 coefficients 


     PseudoPot. # 2 for Ag read from file:
     /home/ecastro/trabajo_final/pseudos/Ag.pbe-n-rrkjus_psl.1.0.0.UPF
     MD5 check sum: 81cdf87bacf708300839c66ee23ce017
     Pseudo is Ultrasoft + core correction, Zval = 11.0
     Generated using &quot;atomic&quot; code by A. Dal Corso  v.6.2.2
     Using radial grid of 1237 points,  6 beta functions with: 
                l(1) =   0
                l(2) =   0
                l(3) =   1
                l(4) =   1
                l(5) =   2
                l(6) =   2
     Q(r) pseudized with 0 coefficients 


     atomic species   valence    mass     pseudopotential
        Li             3.00     6.94100     Li( 1.00)
        Ag            11.00   107.86820     Ag( 1.00)

     No symmetry found



   Cartesian axes

     site n.     atom                  positions (alat units)
         1           Ag  tau(   1) = (  -0.0000114   0.7071192   7.5445885  )
         2           Ag  tau(   2) = (   0.6666549   0.2357106   6.7356889  )
         3           Ag  tau(   3) = (   0.0000000   0.7071068   5.9366330  )
         4           Ag  tau(   4) = (   0.6666667   0.2357023   5.1201364  )
         5           Ag  tau(   5) = (   0.0000000   0.7071068   4.3036398  )
         6           Ag  tau(   6) = (   0.6666667   0.2357023   3.4871433  )
         7           Li  tau(   7) = (   0.1666553   0.2357147   8.2420172  )

     --------------------------------------------
     DFT-D3 Dispersion Correction (no 3-body):
     --------------------------------------------
       Reference C6 values for interpolation: 

         atom   Coordination number   C6
         Li         0.000          2326.89
         Li         0.987           170.64
         Ag         0.000           853.49
         Ag         0.968           537.23

       Values used:

         atom   Coordination number  R0_AB[au]  C6      C8
         Ag         8.056            3.147    537.23  47741.54
         Ag         7.734            3.147    537.23  47741.54
         Ag         7.659            3.147    537.23  47741.54
         Ag         7.511            3.147    537.23  47741.54
         Ag         7.500            3.147    537.23  47741.54
         Ag         5.503            3.147    537.23  47741.54
         Li         6.733            3.303    170.64  12899.87

         Molecular C6 ( Ry / a.u.^6 ) =     22982.53


     number of k points=    34  Methfessel-Paxton smearing, width (Ry)=  0.0300
                       cart. coord. in units 2pi/alat
        k(    1) = (   0.0000000   0.0000000   0.0000000), wk =   0.0312500
        k(    2) = (   0.0000000   0.1325825   0.0000000), wk =   0.0625000
        k(    3) = (   0.0000000   0.2651650   0.0000000), wk =   0.0625000
        k(    4) = (   0.0000000   0.3977476   0.0000000), wk =   0.0625000
        k(    5) = (   0.0000000  -0.5303301   0.0000000), wk =   0.0312500
        k(    6) = (   0.1250000   0.0441942   0.0000000), wk =   0.0625000
        k(    7) = (   0.1250000   0.1767767   0.0000000), wk =   0.0625000
        k(    8) = (   0.1250000   0.3093592   0.0000000), wk =   0.0625000
        k(    9) = (   0.1250000   0.4419417   0.0000000), wk =   0.0625000
        k(   10) = (   0.1250000  -0.4861359   0.0000000), wk =   0.0625000
        k(   11) = (   0.1250000  -0.3535534   0.0000000), wk =   0.0625000
        k(   12) = (   0.1250000  -0.2209709   0.0000000), wk =   0.0625000
        k(   13) = (   0.1250000  -0.0883883   0.0000000), wk =   0.0625000
        k(   14) = (   0.2500000   0.0883883   0.0000000), wk =   0.0625000
        k(   15) = (   0.2500000   0.2209709   0.0000000), wk =   0.0625000
        k(   16) = (   0.2500000   0.3535534   0.0000000), wk =   0.0625000
        k(   17) = (   0.2500000   0.4861359   0.0000000), wk =   0.0625000
        k(   18) = (   0.2500000  -0.4419417   0.0000000), wk =   0.0625000
        k(   19) = (   0.2500000  -0.3093592   0.0000000), wk =   0.0625000
        k(   20) = (   0.2500000  -0.1767767   0.0000000), wk =   0.0625000
        k(   21) = (   0.2500000  -0.0441942   0.0000000), wk =   0.0625000
        k(   22) = (   0.3750000   0.1325825   0.0000000), wk =   0.0625000
        k(   23) = (   0.3750000   0.2651650   0.0000000), wk =   0.0625000
        k(   24) = (   0.3750000   0.3977476   0.0000000), wk =   0.0625000
        k(   25) = (   0.3750000   0.5303301   0.0000000), wk =   0.0625000
        k(   26) = (   0.3750000  -0.3977476   0.0000000), wk =   0.0625000
        k(   27) = (   0.3750000  -0.2651650   0.0000000), wk =   0.0625000
        k(   28) = (   0.3750000  -0.1325825   0.0000000), wk =   0.0625000
        k(   29) = (   0.3750000  -0.0000000   0.0000000), wk =   0.0625000
        k(   30) = (  -0.5000000  -0.1767767   0.0000000), wk =   0.0312500
        k(   31) = (  -0.5000000  -0.0441942   0.0000000), wk =   0.0625000
        k(   32) = (  -0.5000000   0.0883883   0.0000000), wk =   0.0625000
        k(   33) = (  -0.5000000   0.2209709   0.0000000), wk =   0.0625000
        k(   34) = (  -0.5000000  -0.7071068   0.0000000), wk =   0.0312500

     Dense  grid:   313371 G-vectors     FFT dimensions: (  40,  40, 432)

     Smooth grid:    91489 G-vectors     FFT dimensions: (  25,  25, 288)

     Estimated max dynamical RAM per process >      14.50 MB

     Estimated total dynamical RAM >       2.49 GB
     Cannot read rho : file not found

     Initial potential from superposition of free atoms

     starting charge      68.9930, renormalised to      69.0000

     negative rho (up, down):  3.447E-05 0.000E+00
     Message from routine qexsd_readschema :
     xml data file ./Ag_mp-2646971_110_bridge_0/Ag_mp-2646971_110_bridge_0.save/data-
     Cannot read wfcs: file not found
     Starting wfcs are   59 randomized atomic wfcs

     total cpu time spent up to now is        7.0 secs

     per-process dynamical memory:   173.8 Mb

     Self-consistent Calculation

     iteration #  1     ecut=    55.00 Ry     beta= 0.30
     Davidson diagonalization with overlap
     c_bands:  1 eigenvalues not converged
     c_bands:  1 eigenvalues not converged
     c_bands:  1 eigenvalues not converged
     ethr =  1.00E-05,  avg # of iterations = 18.9

     negative rho (up, down):  2.787E-05 0.000E+00

     total cpu time spent up to now is        8.7 secs

     total energy              =    -520.34771564 Ry
     estimated scf accuracy    <       0.61931264 Ry

     iteration #  2     ecut=    55.00 Ry     beta= 0.30
     Davidson diagonalization with overlap
     ethr =  8.98E-04,  avg # of iterations =  8.8

     negative rho (up, down):  5.986E-05 0.000E+00

     total cpu time spent up to now is        9.3 secs

     total energy              =    -516.38158295 Ry
     estimated scf accuracy    <     260.34811035 Ry

     iteration #  3     ecut=    55.00 Ry     beta= 0.30
     Davidson diagonalization with overlap
     ethr =  8.98E-04,  avg # of iterations =  7.9

     negative rho (up, down):  4.231E-05 0.000E+00

     total cpu time spent up to now is        9.9 secs

     total energy              =    -520.59557066 Ry
     estimated scf accuracy    <       0.21456571 Ry

     iteration #  4     ecut=    55.00 Ry     beta= 0.30
     Davidson diagonalization with overlap
     ethr =  3.11E-04,  avg # of iterations =  2.6

     negative rho (up, down):  4.536E-05 0.000E+00

     total cpu time spent up to now is       10.3 secs

     total energy              =    -520.58455758 Ry
     estimated scf accuracy    <       0.57669780 Ry

     iteration #  5     ecut=    55.00 Ry     beta= 0.30
     Davidson diagonalization with overlap
     ethr =  3.11E-04,  avg # of iterations =  1.7

     negative rho (up, down):  5.110E-05 0.000E+00

     total cpu time spent up to now is       10.5 secs

     total energy              =    -520.60258941 Ry
     estimated scf accuracy    <       0.05342870 Ry

     iteration #  6     ecut=    55.00 Ry     beta= 0.30
     Davidson diagonalization with overlap
     ethr =  7.74E-05,  avg # of iterations =  3.2

     negative rho (up, down):  3.154E-05 0.000E+00

     total cpu time spent up to now is       11.0 secs

     total energy              =    -520.60421493 Ry
     estimated scf accuracy    <       0.02416890 Ry

     iteration #  7     ecut=    55.00 Ry     beta= 0.30
     Davidson diagonalization with overlap
     ethr =  3.50E-05,  avg # of iterations =  4.5

     negative rho (up, down):  1.749E-05 0.000E+00

     total cpu time spent up to now is       11.4 secs

     total energy              =    -520.60412172 Ry
     estimated scf accuracy    <       0.01252067 Ry

     iteration #  8     ecut=    55.00 Ry     beta= 0.30
     Davidson diagonalization with overlap
     ethr =  1.81E-05,  avg # of iterations =  2.6

     negative rho (up, down):  6.651E-06 0.000E+00

     total cpu time spent up to now is       11.7 secs

     total energy              =    -520.60418613 Ry
     estimated scf accuracy    <       0.00094807 Ry

     iteration #  9     ecut=    55.00 Ry     beta= 0.30
     Davidson diagonalization with overlap
     ethr =  1.37E-06,  avg # of iterations =  8.5

     negative rho (up, down):  6.869E-06 0.000E+00

     total cpu time spent up to now is       12.2 secs

     total energy              =    -520.60430644 Ry
     estimated scf accuracy    <       0.00016478 Ry

     iteration # 10     ecut=    55.00 Ry     beta= 0.30
     Davidson diagonalization with overlap
     ethr =  2.39E-07,  avg # of iterations =  1.6

     negative rho (up, down):  8.355E-06 0.000E+00

     total cpu time spent up to now is       12.5 secs

     total energy              =    -520.60431763 Ry
     estimated scf accuracy    <       0.00003706 Ry

     iteration # 11     ecut=    55.00 Ry     beta= 0.30
     Davidson diagonalization with overlap
     ethr =  5.37E-08,  avg # of iterations =  2.2

     negative rho (up, down):  8.854E-06 0.000E+00

     total cpu time spent up to now is       12.8 secs

     total energy              =    -520.60431930 Ry
     estimated scf accuracy    <       0.00000508 Ry

     iteration # 12     ecut=    55.00 Ry     beta= 0.30
     Davidson diagonalization with overlap
     ethr =  7.37E-09,  avg # of iterations =  2.7

     negative rho (up, down):  9.843E-06 0.000E+00

     total cpu time spent up to now is       13.2 secs

     End of self-consistent calculation

          k = 0.0000 0.0000 0.0000 ( 11533 PWs)   bands (ev):

   -43.2360  -3.7416  -3.2919  -2.6927  -2.5411  -2.4590  -2.2718  -1.9150
    -1.8272  -1.6749  -1.4786  -1.3197  -1.3066  -1.2186  -1.1743  -1.1644
    -1.0148  -0.9057  -0.4898  -0.4066  -0.2730  -0.2498  -0.1595  -0.1362
    -0.0634  -0.0400  -0.0061   0.0077   0.0142   0.0289   0.0634   0.1073
     0.2046   0.4915   0.8268   0.9014   2.1301   3.3391   3.8830   6.7920
     7.3691   7.7785

          k = 0.0000 0.1326 0.0000 ( 11489 PWs)   bands (ev):

   -43.2337  -3.3888  -2.9628  -2.4007  -2.3293  -2.2402  -2.0426  -1.8406
    -1.7535  -1.6033  -1.4472  -1.3857  -1.3074  -1.2657  -1.2278  -1.1516
    -1.0305  -0.8333  -0.7555  -0.4461  -0.3714  -0.2848  -0.2554  -0.1859
    -0.1525  -0.1126  -0.0926  -0.0438   0.0120   0.0630   0.0663   0.1366
     0.2188   0.4756   0.6240   1.5966   2.7225   3.8240   4.6004   7.0977
     7.6816   8.0433

          k = 0.0000 0.2652 0.0000 ( 11469 PWs)   bands (ev):

   -43.2284  -2.5721  -2.3990  -2.1702  -2.0751  -2.0260  -1.8981  -1.6843
    -1.6333  -1.5739  -1.5315  -1.4712  -1.3624  -1.2288  -0.9586  -0.8652
    -0.8243  -0.7154  -0.5126  -0.4075  -0.3419  -0.2631  -0.2431  -0.1962
    -0.1738  -0.1487  -0.0581   0.0089   0.0753   0.0959   0.1537   0.2234
     0.2544   0.4065   1.3924   2.6404   3.8039   5.0089   6.2420   7.9843
     8.6068   8.8337

          k = 0.0000 0.3977 0.0000 ( 11401 PWs)   bands (ev):

   -43.2230  -2.4138  -2.3866  -2.2276  -2.2100  -2.0736  -1.9297  -1.8323
    -1.8150  -1.7503  -1.7007  -1.5592  -1.4009  -0.9856  -0.8796  -0.4757
    -0.3723  -0.2957  -0.1913  -0.1342  -0.0938  -0.0476  -0.0061   0.0244
     0.0530   0.1078   0.1829   0.3021   0.3324   0.4635   0.5183   1.0907
     1.1976   1.5726   2.6183   3.8341   5.0554   6.3500   7.0435   7.6311
     8.3373   8.5621

          k = 0.0000-0.5303 0.0000 ( 11418 PWs)   bands (ev):

   -43.2209  -2.5106  -2.4894  -2.2954  -2.2897  -2.1111  -1.9660  -1.8974
    -1.8891  -1.8145  -1.8065  -1.6610  -1.4756  -0.8716  -0.6576  -0.3347
    -0.3027  -0.1981  -0.1241  -0.0815  -0.0608  -0.0594   0.0100   0.0434
     0.0991   0.1707   0.3149   0.3960   0.4882   0.7389   0.7940   3.4221
     3.5551   3.6103   3.6670   3.6784   3.6889   4.0697   6.9233   7.5760
     7.6292   8.0269

          k = 0.1250 0.0442 0.0000 ( 11489 PWs)   bands (ev):

   -43.2338  -3.3901  -2.9684  -2.4318  -2.3287  -2.2497  -2.0447  -1.8307
    -1.7474  -1.5895  -1.4409  -1.3822  -1.3090  -1.2650  -1.2257  -1.1279
    -1.0301  -0.8315  -0.7376  -0.4585  -0.3642  -0.3010  -0.2626  -0.1863
    -0.1613  -0.1141  -0.0913  -0.0435   0.0084   0.0588   0.0661   0.1354
     0.2204   0.4722   0.6383   1.6302   2.7363   3.8056   4.5968   7.0885
     7.6800   8.0408

          k = 0.1250 0.1768 0.0000 ( 11509 PWs)   bands (ev):

   -43.2312  -2.8490  -2.4943  -2.0492  -1.9577  -1.9158  -1.8730  -1.8066
    -1.7277  -1.6834  -1.5184  -1.5026  -1.4241  -1.3171  -1.3024  -1.1789
    -1.1457  -0.8637  -0.7690  -0.4831  -0.4511  -0.2983  -0.2841  -0.1379
    -0.1350  -0.0241   0.0105   0.0250   0.0361   0.1021   0.1178   0.1307
     0.1698   0.3856   1.2559   2.3900   3.4415   4.5395   5.6334   7.5859
     8.1947   8.4812

          k = 0.1250 0.3094 0.0000 ( 11436 PWs)   bands (ev):

   -43.2257  -2.1681  -2.1148  -2.0060  -1.9306  -1.8836  -1.8098  -1.7637
    -1.6639  -1.6035  -1.4856  -1.3925  -1.2840  -1.1195  -0.9626  -0.9339
    -0.8107  -0.7720  -0.6507  -0.5420  -0.4346  -0.3763  -0.2320  -0.1755
    -0.0460   0.0201   0.0634   0.0826   0.1243   0.1327   0.1397   0.5150
     0.6317   1.2395   2.2809   3.4951   4.6029   5.8520   7.2782   8.6338
     9.2617   9.4383

          k = 0.1250 0.4419 0.0000 ( 11400 PWs)   bands (ev):

   -43.2208  -2.2941  -2.2610  -2.0879  -2.0624  -1.9418  -1.8617  -1.8424
    -1.7479  -1.6983  -1.6383  -1.4755  -1.3443  -0.9799  -0.8780  -0.6180
    -0.5794  -0.4514  -0.3178  -0.2408  -0.2132  -0.0733  -0.0322  -0.0069
     0.0508   0.0806   0.1202   0.1488   0.2692   0.4684   0.4953   2.0757
     2.2944   2.8610   3.7213   4.6915   5.6608   6.2012   7.0955   7.4336
     8.1625   8.3610

          k = 0.1250-0.4861 0.0000 ( 11392 PWs)   bands (ev):

   -43.2193  -2.3382  -2.3096  -2.1499  -2.1052  -1.8995  -1.8388  -1.8110
    -1.7897  -1.6596  -1.6422  -1.4881  -1.4167  -1.1094  -0.9632  -0.6944
    -0.6181  -0.4212  -0.3347  -0.2231  -0.1986  -0.1611  -0.0935  -0.0599
    -0.0157   0.0377   0.0889   0.3635   0.5299   0.7661   0.7861   3.2312
     3.3842   3.6522   4.1134   4.5817   4.8468   5.0115   7.1576   7.5000
     7.8892   8.2508

          k = 0.1250-0.3536 0.0000 ( 11413 PWs)   bands (ev):

   -43.2220  -2.1853  -2.1479  -2.0257  -1.9781  -1.7721  -1.7014  -1.6594
    -1.6019  -1.5836  -1.5147  -1.4763  -1.4275  -1.3084  -1.2578  -1.0109
    -0.8913  -0.7096  -0.5336  -0.4426  -0.2911  -0.1999  -0.1365  -0.1247
    -0.0654   0.0291   0.0626   0.2975   0.3517   0.5326   0.5660   1.0510
     1.1664   1.5807   2.5023   3.7001   4.9274   6.2857   7.6210   8.4683
     8.9420   9.2537

          k = 0.1250-0.2210 0.0000 ( 11482 PWs)   bands (ev):

   -43.2275  -2.6000  -2.2890  -1.9616  -1.9335  -1.8274  -1.6859  -1.5348
    -1.4688  -1.4270  -1.3564  -1.3149  -1.3123  -1.2686  -1.1528  -1.0618
    -1.0238  -0.9430  -0.7427  -0.6425  -0.5852  -0.4731  -0.4371  -0.3154
    -0.2897  -0.2678  -0.2302  -0.1333  -0.0689   0.0886   0.1670   0.3563
     0.4900   0.5977   1.2783   2.4528   3.6165   4.8368   5.9797   7.8964
     8.5047   8.7654

          k = 0.1250-0.0884 0.0000 ( 11507 PWs)   bands (ev):

   -43.2323  -3.2718  -2.8350  -2.3093  -2.2488  -2.1675  -1.9319  -1.6198
    -1.5372  -1.4018  -1.2784  -1.2636  -1.2195  -1.1449  -1.0913  -1.0251
    -0.9867  -0.9113  -0.8354  -0.7617  -0.6541  -0.5753  -0.5436  -0.4286
    -0.3895  -0.2662  -0.2247  -0.1548  -0.0529   0.0109   0.1067   0.2512
     0.4440   0.6380   0.7906   1.6340   2.7749   3.9260   4.7333   7.1965
     7.7847   8.1353

          k = 0.2500 0.0884 0.0000 ( 11469 PWs)   bands (ev):

   -43.2286  -2.5744  -2.4115  -2.2276  -2.1081  -2.0262  -1.8980  -1.6715
    -1.6330  -1.5733  -1.5309  -1.4696  -1.3497  -1.1729  -0.9313  -0.8479
    -0.8154  -0.7023  -0.5158  -0.4506  -0.3481  -0.2658  -0.2478  -0.1971
    -0.1751  -0.1451  -0.0586   0.0052   0.0746   0.0935   0.1541   0.2216
     0.2569   0.4210   1.4488   2.7399   3.8087   4.9617   6.2611   7.9270
     8.5972   8.8246

          k = 0.2500 0.2210 0.0000 ( 11436 PWs)   bands (ev):

   -43.2259  -2.1639  -2.1178  -2.0292  -1.9668  -1.8872  -1.8135  -1.7616
    -1.6741  -1.5990  -1.4893  -1.3954  -1.2605  -1.0951  -0.9553  -0.8938
    -0.7991  -0.7715  -0.6846  -0.5432  -0.4344  -0.3783  -0.2396  -0.1635
    -0.0504   0.0191   0.0622   0.0827   0.1233   0.1325   0.1398   0.5141
     0.6328   1.2556   2.3258   3.5745   4.5940   5.8247   7.3344   8.4948
     9.2417   9.3307

          k = 0.2500 0.3536 0.0000 ( 11393 PWs)   bands (ev):

   -43.2209  -2.0013  -1.9701  -1.8264  -1.7733  -1.6185  -1.5965  -1.5496
    -1.4960  -1.4817  -1.4310  -1.3653  -1.2485  -1.1798  -1.0974  -0.9578
    -0.8937  -0.8548  -0.8053  -0.6344  -0.5693  -0.3476  -0.3345  -0.1155
    -0.0479   0.0457   0.1237   0.1298   0.1398   0.2147   0.2375   1.6790
     2.0300   2.7560   3.7724   4.9146   5.9861   7.2236   8.2680   8.9128
     9.3506   9.6463

          k = 0.2500 0.4861 0.0000 ( 11399 PWs)   bands (ev):

   -43.2169  -2.0357  -2.0128  -1.9241  -1.8957  -1.8175  -1.6981  -1.6406
    -1.5704  -1.5161  -1.4845  -1.3322  -1.2629  -1.1241  -1.0146  -0.9407
    -0.8510  -0.8470  -0.6303  -0.4972  -0.4014  -0.2757  -0.1716  -0.0829
     0.0305   0.0955   0.1311   0.2345   0.3151   0.5019   0.5165   3.7681
     4.1229   4.7175   5.4471   6.1037   6.2904   6.5654   7.4121   7.7881
     8.3515   8.8085

          k = 0.2500-0.4419 0.0000 ( 11392 PWs)   bands (ev):

   -43.2158  -2.0700  -2.0417  -1.9976  -1.9844  -1.9263  -1.8499  -1.7737
    -1.6458  -1.6361  -1.5268  -1.3992  -1.3120  -1.1034  -0.9786  -0.8780
    -0.7789  -0.7216  -0.5890  -0.4896  -0.2758  -0.2348  -0.1909  -0.0891
    -0.0703   0.0591   0.1733   0.3706   0.5381   0.7166   0.7439   3.3148
     3.5893   4.0949   4.8162   5.7144   6.6059   6.8469   7.7008   8.0380
     8.6883   8.9009

          k = 0.2500-0.3094 0.0000 ( 11406 PWs)   bands (ev):

   -43.2185  -2.1455  -1.9967  -1.9656  -1.9308  -1.8574  -1.8232  -1.7241
    -1.6890  -1.5887  -1.5420  -1.3892  -1.3010  -0.9709  -0.8691  -0.8498
    -0.7242  -0.6541  -0.5779  -0.5260  -0.4357  -0.3718  -0.2624  -0.1302
    -0.1235   0.0601   0.1760   0.2548   0.2939   0.4748   0.5797   1.1081
     1.4279   2.0642   2.9635   4.0617   5.2277   6.5727   7.9850   9.3458
    10.0713  10.1233

          k = 0.2500-0.1768 0.0000 ( 11422 PWs)   bands (ev):

   -43.2234  -2.3778  -2.0398  -1.9955  -1.8068  -1.6788  -1.5784  -1.5703
    -1.5269  -1.4830  -1.3130  -1.2630  -1.1093  -0.9368  -0.9180  -0.8912
    -0.7966  -0.7605  -0.7004  -0.6405  -0.6018  -0.5444  -0.4012  -0.3926
    -0.3183  -0.2991  -0.2763  -0.2434  -0.1398  -0.0885   0.3381   0.3932
     0.7035   0.9488   1.8006   2.9585   4.0877   5.3526   6.6150   8.3673
     8.9958   9.2391

          k = 0.2500-0.0442 0.0000 ( 11482 PWs)   bands (ev):

   -43.2276  -2.6001  -2.2936  -1.9860  -1.9461  -1.8582  -1.6889  -1.5257
    -1.4872  -1.4225  -1.3547  -1.3124  -1.3025  -1.2546  -1.1227  -1.0372
    -1.0198  -0.9489  -0.7454  -0.6771  -0.5524  -0.4712  -0.4258  -0.3131
    -0.2949  -0.2727  -0.2276  -0.1359  -0.0732   0.0772   0.1749   0.3489
     0.5076   0.5921   1.3100   2.5175   3.6266   4.8007   5.9829   7.8669
     8.4993   8.7594

          k = 0.3750 0.1326 0.0000 ( 11401 PWs)   bands (ev):

   -43.2233  -2.4086  -2.4009  -2.2663  -2.2129  -2.1001  -1.9284  -1.8257
    -1.8113  -1.7423  -1.6936  -1.5426  -1.3914  -0.9514  -0.8719  -0.4700
    -0.4373  -0.2957  -0.1958  -0.1395  -0.0934  -0.0474  -0.0043   0.0232
     0.0537   0.1096   0.1858   0.2972   0.3348   0.4680   0.5192   1.0900
     1.1986   1.5945   2.7268   4.0842   5.1632   6.2650   7.1002   7.6231
     8.0214   8.5050

          k = 0.3750 0.2652 0.0000 ( 11400 PWs)   bands (ev):

   -43.2211  -2.2804  -2.2691  -2.0966  -2.0710  -1.9676  -1.8602  -1.8474
    -1.7459  -1.6987  -1.6246  -1.4703  -1.3468  -0.9559  -0.8743  -0.6475
    -0.5750  -0.4660  -0.3207  -0.2428  -0.2043  -0.0735  -0.0332   0.0044
     0.0523   0.0802   0.1209   0.1515   0.2671   0.4715   0.4934   2.0601
     2.2844   2.8881   3.8593   4.9925   5.9023   6.3384   6.5126   7.4275
     7.9787   8.3423

          k = 0.3750 0.3977 0.0000 ( 11399 PWs)   bands (ev):

   -43.2170  -2.0282  -2.0077  -1.9052  -1.8963  -1.8015  -1.6972  -1.6449
    -1.5736  -1.5184  -1.4802  -1.3487  -1.2919  -1.1357  -1.0153  -0.9420
    -0.8660  -0.8481  -0.6257  -0.4974  -0.4001  -0.2691  -0.1573  -0.0896
     0.0292   0.0949   0.1307   0.2355   0.3150   0.5026   0.5158   3.7656
     4.1452   4.8207   5.6577   6.0614   6.3598   6.6144   7.0895   7.8063
     8.2253   8.8331

          k = 0.3750 0.5303 0.0000 ( 11360 PWs)   bands (ev):

   -43.2133  -2.1301  -2.0631  -2.0221  -1.9905  -1.9672  -1.8777  -1.7741
    -1.7447  -1.6687  -1.6051  -1.4941  -1.4095  -1.2723  -1.1106  -0.8150
    -0.7235  -0.4380  -0.3746  -0.1649  -0.0969   0.0403   0.0926   0.1426
     0.1537   0.2384   0.2617   0.2673   0.3048   0.4837   0.5250   5.6360
     5.8872   6.0990   6.3521   6.5686   7.1251   7.4622   7.6532   7.8999
     8.1640   8.4838

          k = 0.3750-0.3977 0.0000 ( 11395 PWs)   bands (ev):

   -43.2124  -2.3278  -2.3186  -2.2938  -2.1574  -2.1299  -2.0830  -1.9340
    -1.8382  -1.7781  -1.7577  -1.6146  -1.3372  -1.1174  -0.8077  -0.6830
    -0.5310  -0.2337  -0.1738  -0.1194  -0.0737   0.1083   0.1541   0.2618
     0.2960   0.3929   0.4785   0.5528   0.6131   0.6641   0.6817   3.5530
     4.0335   4.7019   5.4540   6.4193   7.5927   8.4024   8.5508   8.7415
     9.0658   9.1470

          k = 0.3750-0.2652 0.0000 ( 11394 PWs)   bands (ev):

   -43.2146  -2.3685  -2.2852  -2.2380  -2.1516  -2.0802  -2.0530  -1.9189
    -1.7694  -1.7563  -1.7019  -1.4729  -1.2677  -0.9990  -0.7817  -0.6178
    -0.4447  -0.3217  -0.2446  -0.1319  -0.1073   0.0624   0.0771   0.1424
     0.2857   0.2884   0.3655   0.4588   0.5283   0.5601   0.6269   1.5647
     2.1801   2.9999   3.9117   4.9140   6.0570   7.4012   8.7177   9.6401
    10.3751  10.5395

          k = 0.3750-0.1326 0.0000 ( 11406 PWs)   bands (ev):

   -43.2187  -2.1397  -1.9930  -1.9626  -1.9297  -1.8547  -1.8150  -1.7263
    -1.6596  -1.5814  -1.5395  -1.3868  -1.3012  -1.0411  -0.8761  -0.8488
    -0.7532  -0.6538  -0.5913  -0.5346  -0.4415  -0.3708  -0.2595  -0.1322
    -0.1052   0.0685   0.1749   0.2537   0.2915   0.4705   0.5779   1.1303
     1.4503   2.0885   3.0010   4.1243   5.2282   6.5297   8.0039   9.2771
     9.9289  10.1158

          k = 0.3750-0.0000 0.0000 ( 11413 PWs)   bands (ev):

   -43.2223  -2.1676  -2.1577  -2.0147  -1.9953  -1.8124  -1.6949  -1.6545
    -1.6041  -1.5800  -1.5155  -1.4803  -1.4169  -1.3006  -1.2510  -1.0127
    -0.8855  -0.7273  -0.5464  -0.4910  -0.2815  -0.1973  -0.1365  -0.1214
    -0.0619   0.0378   0.0592   0.3054   0.3445   0.5336   0.5661   1.0742
     1.1759   1.6107   2.5810   3.8584   4.9491   6.2091   7.8150   8.2414
     8.7204   9.2715

          k =-0.5000-0.1768 0.0000 ( 11418 PWs)   bands (ev):

   -43.2213  -2.5058  -2.4979  -2.3365  -2.2753  -2.1462  -1.9618  -1.8921
    -1.8851  -1.8104  -1.7932  -1.6501  -1.4718  -0.8044  -0.6562  -0.4201
    -0.2815  -0.2045  -0.1283  -0.0833  -0.0615  -0.0599   0.0119   0.0443
     0.0991   0.1767   0.3112   0.4023   0.4818   0.7486   0.7892   2.9297
     3.5629   3.6048   3.6679   3.6867   4.0696   5.6925   5.8998   6.9296
     7.7206   8.0321

          k =-0.5000-0.0442 0.0000 ( 11392 PWs)   bands (ev):

   -43.2197  -2.3218  -2.3184  -2.1320  -2.1229  -1.9354  -1.8267  -1.8044
    -1.7935  -1.6573  -1.6405  -1.4893  -1.4163  -1.0874  -0.9469  -0.6969
    -0.6358  -0.4711  -0.3523  -0.2212  -0.1993  -0.1559  -0.0949  -0.0492
    -0.0157   0.0432   0.0889   0.3772   0.5278   0.7671   0.7864   3.1210
     3.3764   3.6622   4.2312   4.7787   5.0074   5.9653   6.1524   7.1833
     7.8737   8.2765

          k =-0.5000 0.0884 0.0000 ( 11392 PWs)   bands (ev):

   -43.2160  -2.0587  -2.0281  -1.9950  -1.9806  -1.9091  -1.8481  -1.7582
    -1.6402  -1.6362  -1.5331  -1.3947  -1.3228  -1.1329  -0.9954  -0.8887
    -0.8075  -0.7347  -0.5917  -0.4896  -0.2765  -0.2278  -0.1918  -0.0878
    -0.0676   0.0604   0.1686   0.3702   0.5409   0.7180   0.7427   3.3366
     3.6118   4.1511   4.9373   5.8968   6.7259   6.9752   7.0891   7.9724
     8.6005   8.8989

          k =-0.5000 0.2210 0.0000 ( 11395 PWs)   bands (ev):

   -43.2125  -2.3248  -2.3190  -2.2930  -2.1574  -2.1274  -2.0806  -1.9350
    -1.8337  -1.7760  -1.7531  -1.6023  -1.3225  -1.1641  -0.8021  -0.6821
    -0.5242  -0.2388  -0.1772  -0.1209  -0.0737   0.1085   0.1510   0.2514
     0.2864   0.3973   0.4733   0.5534   0.6132   0.6639   0.6817   3.5682
     4.0582   4.7371   5.4834   6.4385   7.6067   8.1343   8.5280   8.7072
     9.0800   9.1414

          k =-0.5000-0.7071 0.0000 ( 11406 PWs)   bands (ev):

   -43.2111  -2.4935  -2.4640  -2.4545  -2.3306  -2.2398  -2.2330  -2.1268
    -1.9312  -1.8601  -1.8212  -1.5589  -1.2796  -1.0667  -0.6466  -0.6056
    -0.4835  -0.2392  -0.1455  -0.0997  -0.0548   0.1227   0.2839   0.5652
     0.5962   0.5992   0.7116   0.7634   0.8464   0.9172   0.9502   3.7679
     4.5580   5.1033   5.7352   7.0600   7.3413   7.5094   7.8844   8.4544
     8.5235   9.1965

     the Fermi energy is     3.6067 ev

!    total energy              =    -520.60431996 Ry
     estimated scf accuracy    <       0.00000038 Ry
     smearing contrib. (-TS)   =      -0.00310336 Ry
     internal energy E=F+TS    =    -520.60121660 Ry

     The total energy is F=E-TS. E is the sum of the following terms:
     one-electron contribution =   -6334.80993774 Ry
     hartree contribution      =    3217.92363208 Ry
     xc contribution           =    -137.53509999 Ry
     ewald contribution        =    2734.00386034 Ry
     DFT-D3 Dispersion         =      -0.18367130 Ry

     convergence has been achieved in  12 iterations

     negative rho (up, down):  9.843E-06 0.000E+00

     Forces acting on atoms (cartesian axes, Ry/au):

     atom    1 type  2   force =    -0.00000203   -0.00000011   -0.01622800
     atom    2 type  2   force =    -0.00000250    0.00000162   -0.00307433
     atom    3 type  2   force =     0.00000003   -0.00000099   -0.00451174
     atom    4 type  2   force =     0.00000176    0.00000035    0.00048917
     atom    5 type  2   force =    -0.00000058    0.00000029    0.00317773
     atom    6 type  2   force =     0.00000391   -0.00000133    0.00320058
     atom    7 type  1   force =    -0.00000058    0.00000017    0.01694658
     The non-local contrib.  to forces
     atom    1 type  2   force =     0.00000051   -0.00000230    0.03285950
     atom    2 type  2   force =    -0.00000179    0.00000011    0.01501437
     atom    3 type  2   force =    -0.00000223   -0.00000323   -0.00376809
     atom    4 type  2   force =     0.00000055    0.00000023   -0.00651661
     atom    5 type  2   force =    -0.00000252   -0.00000060   -0.02882390
     atom    6 type  2   force =     0.00000250   -0.00000308   -0.06725113
     atom    7 type  1   force =    -0.00000090   -0.00000000    0.05530355
     The ionic contribution  to forces
     atom    1 type  2   force =    -0.00000782   -0.00001277  140.29213546
     atom    2 type  2   force =     0.00001481    0.00000777   81.43234916
     atom    3 type  2   force =    -0.00000714    0.00000508   21.51568857
     atom    4 type  2   force =     0.00000016   -0.00000011  -37.52735796
     atom    5 type  2   force =    -0.00000000    0.00000000  -96.48944730
     atom    6 type  2   force =    -0.00000000   -0.00000000 -154.71368767
     atom    7 type  1   force =    -0.00000001    0.00000003   45.49031974
     The local contribution  to forces
     atom    1 type  2   force =     0.00000816    0.00001413 -140.34448475
     atom    2 type  2   force =    -0.00001417   -0.00000612  -81.44884283
     atom    3 type  2   force =     0.00000663   -0.00000673  -21.51742506
     atom    4 type  2   force =    -0.00000059   -0.00000079   37.53424939
     atom    5 type  2   force =     0.00000027   -0.00000053   96.51838093
     atom    6 type  2   force =    -0.00000092    0.00000219  154.77845999
     atom    7 type  1   force =    -0.00000028    0.00000024  -45.52690132
     The core correction contribution to forces
     atom    1 type  2   force =     0.00000014    0.00000010    0.00491376
     atom    2 type  2   force =    -0.00000000   -0.00000008   -0.00009453
     atom    3 type  2   force =    -0.00000002   -0.00000011    0.00077613
     atom    4 type  2   force =    -0.00000003   -0.00000009   -0.00013178
     atom    5 type  2   force =     0.00000003   -0.00000004   -0.00012708
     atom    6 type  2   force =    -0.00000008    0.00000006    0.00475956
     atom    7 type  1   force =     0.00000000    0.00000000    0.00000000
     The Hubbard contrib.    to forces
     atom    1 type  2   force =     0.00000000    0.00000000    0.00000000
     atom    2 type  2   force =     0.00000000    0.00000000    0.00000000
     atom    3 type  2   force =     0.00000000    0.00000000    0.00000000
     atom    4 type  2   force =     0.00000000    0.00000000    0.00000000
     atom    5 type  2   force =     0.00000000    0.00000000    0.00000000
     atom    6 type  2   force =     0.00000000    0.00000000    0.00000000
     atom    7 type  1   force =     0.00000000    0.00000000    0.00000000
     The SCF correction term to forces
     atom    1 type  2   force =    -0.00000380   -0.00000001    0.00027894
     atom    2 type  2   force =    -0.00000200   -0.00000078    0.00050684
     atom    3 type  2   force =     0.00000191    0.00000339   -0.00014233
     atom    4 type  2   force =     0.00000090    0.00000042   -0.00042936
     atom    5 type  2   force =     0.00000087    0.00000078   -0.00044135
     atom    6 type  2   force =     0.00000163   -0.00000118   -0.00099666
     atom    7 type  1   force =    -0.00000016   -0.00000078    0.00037085

     DFT-D3 dispersion contribution to forces:
     atom    1 type  2   force =     0.00000001    0.00000005   -0.00200277
     atom    2 type  2   force =    -0.00000013    0.00000003   -0.00207920
     atom    3 type  2   force =     0.00000011   -0.00000008    0.00028720
     atom    4 type  2   force =     0.00000000   -0.00000000    0.00060364
     atom    5 type  2   force =     0.00000000   -0.00000000    0.00356458
     atom    6 type  2   force =    -0.00000000    0.00000000    0.00184463
     atom    7 type  1   force =    -0.00000000   -0.00000000   -0.00221809

     Total force =     0.024514     Total SCF correction =     0.001366


     Computing stress (Cartesian axis) and pressure


     negative rho (up, down):  9.843E-06 0.000E+00
          total   stress  (Ry/bohr**3)                   (kbar)     P=      -17.24
  -0.00015981  -0.00004268  -0.00000000          -23.51       -6.28       -0.00
  -0.00004268  -0.00011754  -0.00000000           -6.28      -17.29       -0.00
  -0.00000000  -0.00000000  -0.00007430           -0.00       -0.00      -10.93


     BFGS Geometry Optimization
     Energy error            =      0.0E+00 Ry
     Gradient error          =      1.7E-02 Ry/Bohr

     number of scf cycles    =   1
     number of bfgs steps    =   0

     energy             new  =    -520.6043199623 Ry

     new trust radius        =       0.0169465791 bohr
     new conv_thr            =       0.0000010000 Ry


ATOMIC_POSITIONS (angstrom)
Ag           -0.0000336845        2.0277892405       21.6268543472
Ag            1.9117495571        0.6759426726       19.3141521889
Ag            0.0000000168        2.0277532256       17.0219575206
Ag            1.9117854966        0.6759180983       14.6831555462
Ag           -0.0000003088        2.0277539021       12.3431299271
Ag            1.9117866345        0.6759172133       10.0016936747
Li            0.4779132284        0.6759535570       23.6444095784



     Writing config-only to output data dir ./Ag_mp-2646971_110_bridge_0/Ag_mp-2646971_110_bridge_0.save/
     NEW-OLD atomic charge density approx. for the potential

     negative rho (up, down):  9.997E-06 0.000E+00

     total cpu time spent up to now is       14.4 secs

     per-process dynamical memory:   182.3 Mb

     Self-consistent Calculation

     iteration #  1     ecut=    55.00 Ry     beta= 0.30
     Davidson diagonalization with overlap
     ethr =  1.00E-06,  avg # of iterations =  4.2

     negative rho (up, down):  9.900E-06 0.000E+00

     total cpu time spent up to now is       15.0 secs

     total energy              =    -520.60485442 Ry
     estimated scf accuracy    <       0.00007362 Ry

     iteration #  2     ecut=    55.00 Ry     beta= 0.30
     Davidson diagonalization with overlap
     ethr =  1.07E-07,  avg # of iterations =  3.8

     negative rho (up, down):  1.055E-05 0.000E+00

     total cpu time spent up to now is       15.5 secs

     total energy              =    -520.60477643 Ry
     estimated scf accuracy    <       0.00324870 Ry

     iteration #  3     ecut=    55.00 Ry     beta= 0.30
     Davidson diagonalization with overlap
     ethr =  1.07E-07,  avg # of iterations =  2.2

     negative rho (up, down):  1.164E-05 0.000E+00

     total cpu time spent up to now is       15.8 secs

     total energy              =    -520.60487047 Ry
     estimated scf accuracy    <       0.00031219 Ry

     iteration #  4     ecut=    55.00 Ry     beta= 0.30
     Davidson diagonalization with overlap
     ethr =  1.07E-07,  avg # of iterations =  1.1

     negative rho (up, down):  1.101E-05 0.000E+00

     total cpu time spent up to now is       16.1 secs

     total energy              =    -520.60487669 Ry
     estimated scf accuracy    <       0.00039325 Ry

     iteration #  5     ecut=    55.00 Ry     beta= 0.30
     Davidson diagonalization with overlap
     ethr =  1.07E-07,  avg # of iterations =  1.1

     negative rho (up, down):  1.054E-05 0.000E+00

     total cpu time spent up to now is       16.4 secs

     total energy              =    -520.60488341 Ry
     estimated scf accuracy    <       0.00000614 Ry

     iteration #  6     ecut=    55.00 Ry     beta= 0.30
     Davidson diagonalization with overlap
     ethr =  8.90E-09,  avg # of iterations =  1.6

     negative rho (up, down):  1.052E-05 0.000E+00

     total cpu time spent up to now is       16.6 secs

     total energy              =    -520.60488403 Ry
     estimated scf accuracy    <       0.00000136 Ry

     iteration #  7     ecut=    55.00 Ry     beta= 0.30
     Davidson diagonalization with overlap
     ethr =  1.97E-09,  avg # of iterations =  2.2

     negative rho (up, down):  9.870E-06 0.000E+00

     total cpu time spent up to now is       16.9 secs

     End of self-consistent calculation

          k = 0.0000 0.0000 0.0000 ( 11533 PWs)   bands (ev):

   -43.2485  -3.7485  -3.2973  -2.6935  -2.5464  -2.4631  -2.2750  -1.9177
    -1.8306  -1.6757  -1.4802  -1.3225  -1.3041  -1.2213  -1.1780  -1.1718
    -1.0175  -0.9114  -0.4906  -0.4059  -0.2647  -0.2474  -0.1634  -0.1401
    -0.0668  -0.0428  -0.0102   0.0092   0.0113   0.0246   0.0587   0.1030
     0.2021   0.4907   0.8261   0.8978   2.1257   3.3307   3.8754   6.7936
     7.3916   7.7808

          k = 0.0000 0.1326 0.0000 ( 11489 PWs)   bands (ev):

   -43.2463  -3.3957  -2.9685  -2.4022  -2.3351  -2.2440  -2.0458  -1.8432
    -1.7570  -1.6040  -1.4482  -1.3878  -1.3117  -1.2689  -1.2324  -1.1540
    -1.0332  -0.8358  -0.7559  -0.4439  -0.3686  -0.2859  -0.2566  -0.1894
    -0.1532  -0.1151  -0.0953  -0.0477   0.0097   0.0602   0.0636   0.1337
     0.2165   0.4739   0.6215   1.5946   2.7177   3.8156   4.5957   7.0992
     7.7031   8.0451

          k = 0.0000 0.2652 0.0000 ( 11469 PWs)   bands (ev):

   -43.2410  -2.5786  -2.4048  -2.1743  -2.0768  -2.0311  -1.9017  -1.6887
    -1.6358  -1.5796  -1.5358  -1.4748  -1.3641  -1.2254  -0.9600  -0.8656
    -0.8274  -0.7184  -0.5153  -0.4069  -0.3420  -0.2651  -0.2401  -0.2002
    -0.1770  -0.1507  -0.0606   0.0070   0.0722   0.0934   0.1508   0.2211
     0.2516   0.4051   1.3925   2.6381   3.7976   5.0033   6.2394   7.9855
     8.6235   8.8378

          k = 0.0000 0.3977 0.0000 ( 11401 PWs)   bands (ev):

   -43.2356  -2.4193  -2.3921  -2.2322  -2.2134  -2.0746  -1.9334  -1.8362
    -1.8181  -1.7542  -1.7034  -1.5604  -1.4039  -0.9854  -0.8820  -0.4781
    -0.3705  -0.2953  -0.1938  -0.1369  -0.0976  -0.0508  -0.0092   0.0238
     0.0506   0.1067   0.1801   0.2994   0.3302   0.4611   0.5157   1.0898
     1.1938   1.5721   2.6184   3.8300   5.0503   6.3453   7.0424   7.6288
     8.3361   8.5604

          k = 0.0000-0.5303 0.0000 ( 11418 PWs)   bands (ev):

   -43.2335  -2.5160  -2.4951  -2.2988  -2.2941  -2.1109  -1.9694  -1.9014
    -1.8925  -1.8184  -1.8086  -1.6630  -1.4789  -0.8677  -0.6600  -0.3301
    -0.3040  -0.2012  -0.1277  -0.0852  -0.0651  -0.0633   0.0071   0.0411
     0.0954   0.1735   0.3116   0.3936   0.4857   0.7374   0.7913   3.4228
     3.5510   3.6062   3.6625   3.6807   3.6846   4.0665   6.9214   7.5706
     7.6239   8.0282

          k = 0.1250 0.0442 0.0000 ( 11489 PWs)   bands (ev):

   -43.2463  -3.3969  -2.9738  -2.4314  -2.3344  -2.2538  -2.0479  -1.8345
    -1.7513  -1.5909  -1.4413  -1.3844  -1.3133  -1.2681  -1.2305  -1.1309
    -1.0327  -0.8341  -0.7391  -0.4537  -0.3616  -0.2997  -0.2646  -0.1899
    -0.1625  -0.1166  -0.0940  -0.0474   0.0061   0.0564   0.0628   0.1324
     0.2180   0.4705   0.6351   1.6272   2.7308   3.7971   4.5920   7.0900
     7.7014   8.0425

          k = 0.1250 0.1768 0.0000 ( 11509 PWs)   bands (ev):

   -43.2438  -2.8559  -2.5002  -2.0519  -1.9609  -1.9207  -1.8766  -1.8107
    -1.7297  -1.6852  -1.5208  -1.5047  -1.4274  -1.3198  -1.3071  -1.1816
    -1.1469  -0.8648  -0.7705  -0.4781  -0.4500  -0.2981  -0.2868  -0.1378
    -0.1353  -0.0281   0.0071   0.0211   0.0324   0.0987   0.1149   0.1273
     0.1666   0.3837   1.2544   2.3871   3.4349   4.5333   5.6301   7.5871
     8.2144   8.4831

          k = 0.1250 0.3094 0.0000 ( 11436 PWs)   bands (ev):

   -43.2383  -2.1740  -2.1210  -2.0107  -1.9332  -1.8883  -1.8141  -1.7678
    -1.6666  -1.6077  -1.4885  -1.3962  -1.2813  -1.1197  -0.9641  -0.9349
    -0.8131  -0.7764  -0.6496  -0.5444  -0.4350  -0.3768  -0.2323  -0.1756
    -0.0482   0.0172   0.0599   0.0792   0.1208   0.1293   0.1367   0.5127
     0.6293   1.2392   2.2808   3.4908   4.5964   5.8483   7.2762   8.6348
     9.2684   9.4504

          k = 0.1250 0.4419 0.0000 ( 11400 PWs)   bands (ev):

   -43.2334  -2.2991  -2.2669  -2.0922  -2.0664  -1.9433  -1.8667  -1.8456
    -1.7519  -1.7007  -1.6404  -1.4778  -1.3475  -0.9799  -0.8796  -0.6186
    -0.5792  -0.4524  -0.3162  -0.2421  -0.2151  -0.0758  -0.0353  -0.0089
     0.0484   0.0776   0.1170   0.1470   0.2660   0.4663   0.4925   2.0730
     2.2922   2.8608   3.7195   4.6873   5.6581   6.1973   7.0915   7.4314
     8.1622   8.3581

          k = 0.1250-0.4861 0.0000 ( 11392 PWs)   bands (ev):

   -43.2319  -2.3430  -2.3158  -2.1538  -2.1103  -1.8994  -1.8411  -1.8149
    -1.7944  -1.6626  -1.6457  -1.4908  -1.4199  -1.1112  -0.9653  -0.6970
    -0.6174  -0.4186  -0.3340  -0.2266  -0.2022  -0.1624  -0.0961  -0.0618
    -0.0187   0.0356   0.0864   0.3640   0.5272   0.7639   0.7839   3.2322
     3.3808   3.6502   4.1101   4.5803   4.8431   5.0076   7.1555   7.4928
     7.8879   8.2479

          k = 0.1250-0.3536 0.0000 ( 11413 PWs)   bands (ev):

   -43.2346  -2.1904  -2.1542  -2.0307  -1.9833  -1.7733  -1.7057  -1.6592
    -1.6066  -1.5883  -1.5193  -1.4815  -1.4298  -1.3099  -1.2607  -1.0132
    -0.8930  -0.7102  -0.5343  -0.4401  -0.2917  -0.2030  -0.1391  -0.1266
    -0.0674   0.0281   0.0611   0.2957   0.3505   0.5304   0.5634   1.0505
     1.1634   1.5804   2.5026   3.6962   4.9217   6.2811   7.6195   8.4660
     8.9396   9.2530

          k = 0.1250-0.2210 0.0000 ( 11482 PWs)   bands (ev):

   -43.2401  -2.6070  -2.2952  -1.9671  -1.9389  -1.8307  -1.6900  -1.5400
    -1.4695  -1.4317  -1.3601  -1.3179  -1.3162  -1.2710  -1.1511  -1.0617
    -1.0277  -0.9467  -0.7444  -0.6421  -0.5829  -0.4752  -0.4391  -0.3179
    -0.2920  -0.2691  -0.2319  -0.1355  -0.0704   0.0881   0.1647   0.3546
     0.4895   0.5962   1.2788   2.4503   3.6105   4.8303   5.9760   7.8977
     8.5226   8.7684

          k = 0.1250-0.0884 0.0000 ( 11507 PWs)   bands (ev):

   -43.2449  -3.2788  -2.8407  -2.3121  -2.2536  -2.1712  -1.9351  -1.6223
    -1.5407  -1.4031  -1.2851  -1.2621  -1.2220  -1.1488  -1.0944  -1.0280
    -0.9905  -0.9149  -0.8386  -0.7594  -0.6568  -0.5745  -0.5451  -0.4307
    -0.3908  -0.2680  -0.2267  -0.1572  -0.0512   0.0082   0.1038   0.2487
     0.4432   0.6370   0.7900   1.6309   2.7695   3.9175   4.7281   7.1979
     7.8060   8.1370

          k = 0.2500 0.0884 0.0000 ( 11469 PWs)   bands (ev):

   -43.2412  -2.5808  -2.4164  -2.2272  -2.1113  -2.0314  -1.9016  -1.6763
    -1.6361  -1.5791  -1.5353  -1.4734  -1.3528  -1.1711  -0.9323  -0.8503
    -0.8179  -0.7045  -0.5176  -0.4466  -0.3480  -0.2680  -0.2451  -0.2012
    -0.1785  -0.1470  -0.0610   0.0031   0.0715   0.0909   0.1511   0.2191
     0.2540   0.4191   1.4472   2.7353   3.8004   4.9558   6.2572   7.9269
     8.6150   8.8261

          k = 0.2500 0.2210 0.0000 ( 11436 PWs)   bands (ev):

   -43.2384  -2.1696  -2.1237  -2.0310  -1.9690  -1.8923  -1.8178  -1.7659
    -1.6770  -1.6032  -1.4923  -1.3991  -1.2601  -1.0948  -0.9587  -0.8939
    -0.8009  -0.7758  -0.6816  -0.5458  -0.4356  -0.3781  -0.2401  -0.1635
    -0.0527   0.0164   0.0587   0.0793   0.1198   0.1291   0.1368   0.5117
     0.6303   1.2549   2.3249   3.5688   4.5859   5.8206   7.3305   8.4929
     9.2533   9.3322

          k = 0.2500 0.3536 0.0000 ( 11393 PWs)   bands (ev):

   -43.2335  -2.0068  -1.9759  -1.8312  -1.7787  -1.6242  -1.6009  -1.5538
    -1.5007  -1.4865  -1.4346  -1.3695  -1.2463  -1.1747  -1.0932  -0.9591
    -0.8975  -0.8586  -0.8082  -0.6371  -0.5695  -0.3455  -0.3328  -0.1160
    -0.0495   0.0432   0.1210   0.1271   0.1361   0.2113   0.2340   1.6758
     2.0282   2.7559   3.7708   4.9077   5.9797   7.2223   8.2703   8.9070
     9.3468   9.6437

          k = 0.2500 0.4861 0.0000 ( 11399 PWs)   bands (ev):

   -43.2294  -2.0412  -2.0183  -1.9287  -1.9017  -1.8214  -1.7029  -1.6449
    -1.5754  -1.5199  -1.4889  -1.3334  -1.2603  -1.1265  -1.0179  -0.9434
    -0.8506  -0.8462  -0.6278  -0.5000  -0.4039  -0.2765  -0.1693  -0.0825
     0.0283   0.0927   0.1296   0.2324   0.3125   0.4992   0.5141   3.7661
     4.1217   4.7165   5.4446   6.1028   6.2860   6.5615   7.4047   7.7854
     8.3484   8.8055

          k = 0.2500-0.4419 0.0000 ( 11392 PWs)   bands (ev):

   -43.2284  -2.0733  -2.0477  -2.0039  -1.9901  -1.9314  -1.8556  -1.7769
    -1.6496  -1.6393  -1.5290  -1.4023  -1.3141  -1.1060  -0.9788  -0.8820
    -0.7770  -0.7240  -0.5843  -0.4926  -0.2783  -0.2341  -0.1935  -0.0904
    -0.0718   0.0574   0.1737   0.3698   0.5359   0.7141   0.7415   3.3147
     3.5877   4.0941   4.8125   5.7110   6.6039   6.8423   7.6963   8.0351
     8.6865   8.8953

          k = 0.2500-0.3094 0.0000 ( 11406 PWs)   bands (ev):

   -43.2311  -2.1517  -2.0025  -1.9708  -1.9357  -1.8624  -1.8279  -1.7293
    -1.6928  -1.5912  -1.5445  -1.3930  -1.3042  -0.9715  -0.8693  -0.8490
    -0.7260  -0.6580  -0.5773  -0.5275  -0.4359  -0.3744  -0.2643  -0.1315
    -0.1235   0.0598   0.1743   0.2519   0.2924   0.4726   0.5784   1.1063
     1.4266   2.0651   2.9640   4.0571   5.2223   6.5683   7.9815   9.3466
    10.0739  10.1261

          k = 0.2500-0.1768 0.0000 ( 11422 PWs)   bands (ev):

   -43.2359  -2.3847  -2.0459  -2.0013  -1.8118  -1.6832  -1.5823  -1.5752
    -1.5344  -1.4839  -1.3141  -1.2692  -1.1120  -0.9322  -0.9196  -0.8943
    -0.7980  -0.7650  -0.7003  -0.6393  -0.6033  -0.5457  -0.4034  -0.3955
    -0.3195  -0.3013  -0.2788  -0.2464  -0.1386  -0.0908   0.3375   0.3918
     0.7030   0.9492   1.8018   2.9547   4.0812   5.3467   6.6107   8.3684
     9.0098   9.2445

          k = 0.2500-0.0442 0.0000 ( 11482 PWs)   bands (ev):

   -43.2402  -2.6072  -2.2997  -1.9881  -1.9518  -1.8612  -1.6930  -1.5312
    -1.4878  -1.4276  -1.3586  -1.3166  -1.3072  -1.2579  -1.1219  -1.0357
    -1.0235  -0.9523  -0.7466  -0.6763  -0.5515  -0.4732  -0.4273  -0.3155
    -0.2963  -0.2742  -0.2293  -0.1380  -0.0746   0.0768   0.1723   0.3472
     0.5064   0.5906   1.3096   2.5133   3.6193   4.7940   5.9786   7.8677
     8.5175   8.7613

          k = 0.3750 0.1326 0.0000 ( 11401 PWs)   bands (ev):

   -43.2359  -2.4126  -2.4066  -2.2666  -2.2180  -2.1018  -1.9321  -1.8300
    -1.8151  -1.7463  -1.6966  -1.5436  -1.3949  -0.9531  -0.8738  -0.4702
    -0.4321  -0.2965  -0.1984  -0.1423  -0.0972  -0.0508  -0.0073   0.0227
     0.0511   0.1081   0.1830   0.2945   0.3325   0.4656   0.5166   1.0892
     1.1948   1.5934   2.7253   4.0768   5.1512   6.2584   7.0969   7.6205
     8.0127   8.5028

          k = 0.3750 0.2652 0.0000 ( 11400 PWs)   bands (ev):

   -43.2337  -2.2859  -2.2746  -2.0979  -2.0757  -1.9686  -1.8653  -1.8510
    -1.7502  -1.7017  -1.6268  -1.4722  -1.3500  -0.9573  -0.8755  -0.6452
    -0.5753  -0.4672  -0.3195  -0.2440  -0.2064  -0.0759  -0.0363   0.0020
     0.0500   0.0772   0.1176   0.1498   0.2640   0.4694   0.4906   2.0581
     2.2821   2.8874   3.8570   4.9844   5.8921   6.3291   6.5095   7.4253
     7.9737   8.3394

          k = 0.3750 0.3977 0.0000 ( 11399 PWs)   bands (ev):

   -43.2296  -2.0348  -2.0132  -1.9102  -1.9025  -1.8057  -1.7021  -1.6489
    -1.5784  -1.5221  -1.4847  -1.3448  -1.2915  -1.1384  -1.0185  -0.9445
    -0.8663  -0.8455  -0.6246  -0.5002  -0.4026  -0.2701  -0.1546  -0.0890
     0.0270   0.0921   0.1291   0.2334   0.3125   0.4999   0.5134   3.7634
     4.1435   4.8194   5.6528   6.0606   6.3563   6.6120   7.0744   7.8025
     8.2211   8.8292

          k = 0.3750 0.5303 0.0000 ( 11360 PWs)   bands (ev):

   -43.2259  -2.1354  -2.0691  -2.0282  -1.9964  -1.9722  -1.8828  -1.7785
    -1.7493  -1.6714  -1.6084  -1.4960  -1.4108  -1.2737  -1.1101  -0.8170
    -0.7221  -0.4366  -0.3709  -0.1674  -0.0940   0.0378   0.0952   0.1391
     0.1507   0.2358   0.2593   0.2650   0.3018   0.4814   0.5226   5.6405
     5.8837   6.0956   6.3490   6.5649   7.1215   7.4599   7.6493   7.8960
     8.1573   8.4809

          k = 0.3750-0.3977 0.0000 ( 11395 PWs)   bands (ev):

   -43.2250  -2.3332  -2.3239  -2.3001  -2.1605  -2.1341  -2.0892  -1.9350
    -1.8448  -1.7806  -1.7613  -1.6201  -1.3390  -1.1190  -0.8042  -0.6846
    -0.5249  -0.2327  -0.1755  -0.1221  -0.0755   0.1063   0.1527   0.2604
     0.2962   0.3903   0.4778   0.5495   0.6099   0.6616   0.6787   3.5500
     4.0326   4.7019   5.4495   6.4175   7.5925   8.4015   8.5476   8.7394
     9.0634   9.1410

          k = 0.3750-0.2652 0.0000 ( 11394 PWs)   bands (ev):

   -43.2272  -2.3746  -2.2913  -2.2432  -2.1546  -2.0859  -2.0577  -1.9199
    -1.7747  -1.7618  -1.7041  -1.4792  -1.2681  -1.0014  -0.7784  -0.6125
    -0.4432  -0.3246  -0.2471  -0.1337  -0.1092   0.0602   0.0769   0.1427
     0.2820   0.2855   0.3656   0.4551   0.5258   0.5567   0.6262   1.5609
     2.1787   3.0013   3.9110   4.9085   6.0528   7.3977   8.7145   9.6411
    10.3732  10.5381

          k = 0.3750-0.1326 0.0000 ( 11406 PWs)   bands (ev):

   -43.2313  -2.1462  -1.9990  -1.9682  -1.9346  -1.8599  -1.8199  -1.7314
    -1.6645  -1.5827  -1.5425  -1.3907  -1.3043  -1.0381  -0.8751  -0.8489
    -0.7540  -0.6575  -0.5908  -0.5370  -0.4409  -0.3735  -0.2615  -0.1333
    -0.1059   0.0682   0.1733   0.2508   0.2900   0.4683   0.5765   1.1276
     1.4484   2.0886   3.0008   4.1183   5.2213   6.5251   7.9995   9.2756
     9.9342  10.1173

          k = 0.3750-0.0000 0.0000 ( 11413 PWs)   bands (ev):

   -43.2349  -2.1734  -2.1635  -2.0197  -1.9995  -1.8108  -1.6992  -1.6560
    -1.6091  -1.5847  -1.5200  -1.4856  -1.4195  -1.3019  -1.2546  -1.0141
    -0.8876  -0.7273  -0.5432  -0.4893  -0.2825  -0.2003  -0.1388  -0.1236
    -0.0640   0.0366   0.0578   0.3034   0.3433   0.5314   0.5634   1.0725
     1.1729   1.6094   2.5798   3.8516   4.9396   6.2037   7.8095   8.2395
     8.7148   9.2710

          k =-0.5000-0.1768 0.0000 ( 11418 PWs)   bands (ev):

   -43.2339  -2.5103  -2.5036  -2.3374  -2.2801  -2.1461  -1.9654  -1.8966
    -1.8889  -1.8147  -1.7952  -1.6516  -1.4753  -0.8041  -0.6576  -0.4114
    -0.2833  -0.2075  -0.1316  -0.0869  -0.0659  -0.0637   0.0090   0.0421
     0.0954   0.1789   0.3080   0.3999   0.4794   0.7470   0.7866   2.9370
     3.5591   3.6005   3.6635   3.6823   4.0665   5.6828   5.8701   6.9276
     7.7178   8.0270

          k =-0.5000-0.0442 0.0000 ( 11392 PWs)   bands (ev):

   -43.2323  -2.3273  -2.3242  -2.1360  -2.1269  -1.9335  -1.8307  -1.8077
    -1.7982  -1.6608  -1.6437  -1.4919  -1.4194  -1.0906  -0.9497  -0.6988
    -0.6325  -0.4677  -0.3515  -0.2248  -0.2029  -0.1575  -0.0974  -0.0512
    -0.0186   0.0411   0.0864   0.3774   0.5252   0.7649   0.7842   3.1241
     3.3725   3.6597   4.2277   4.7745   5.0034   5.9568   6.1305   7.1809
     7.8717   8.2713

          k =-0.5000 0.0884 0.0000 ( 11392 PWs)   bands (ev):

   -43.2286  -2.0645  -2.0332  -2.0011  -1.9865  -1.9144  -1.8540  -1.7615
    -1.6432  -1.6402  -1.5349  -1.3976  -1.3244  -1.1334  -0.9956  -0.8915
    -0.8049  -0.7364  -0.5888  -0.4925  -0.2788  -0.2268  -0.1945  -0.0890
    -0.0690   0.0589   0.1690   0.3693   0.5387   0.7154   0.7404   3.3349
     3.6096   4.1496   4.9329   5.8895   6.7229   6.9720   7.0808   7.9706
     8.5962   8.8952

          k =-0.5000 0.2210 0.0000 ( 11395 PWs)   bands (ev):

   -43.2251  -2.3303  -2.3243  -2.2994  -2.1605  -2.1319  -2.0868  -1.9359
    -1.8406  -1.7791  -1.7562  -1.6078  -1.3243  -1.1641  -0.7998  -0.6838
    -0.5177  -0.2377  -0.1786  -0.1236  -0.0755   0.1066   0.1497   0.2523
     0.2849   0.3948   0.4726   0.5501   0.6100   0.6614   0.6787   3.5644
     4.0565   4.7365   5.4786   6.4361   7.6062   8.1349   8.5244   8.7058
     9.0771   9.1367

          k =-0.5000-0.7071 0.0000 ( 11406 PWs)   bands (ev):

   -43.2237  -2.4988  -2.4704  -2.4602  -2.3331  -2.2459  -2.2376  -2.1277
    -1.9346  -1.8672  -1.8236  -1.5652  -1.2793  -1.0692  -0.6478  -0.5946
    -0.4817  -0.2425  -0.1471  -0.1010  -0.0570   0.1223   0.2819   0.5650
     0.5945   0.6022   0.7073   0.7603   0.8425   0.9138   0.9473   3.7626
     4.5551   5.1017   5.7354   7.0635   7.3378   7.5066   7.8827   8.4545
     8.5216   9.1934

     the Fermi energy is     3.6027 ev

!    total energy              =    -520.60488411 Ry
     estimated scf accuracy    <       0.00000028 Ry
     smearing contrib. (-TS)   =      -0.00311481 Ry
     internal energy E=F+TS    =    -520.60176930 Ry

     The total energy is F=E-TS. E is the sum of the following terms:
     one-electron contribution =   -6340.12819801 Ry
     hartree contribution      =    3220.56510038 Ry
     xc contribution           =    -137.53407664 Ry
     ewald contribution        =    2736.67909445 Ry
     DFT-D3 Dispersion         =      -0.18368947 Ry

     convergence has been achieved in   7 iterations

     negative rho (up, down):  9.870E-06 0.000E+00

     Forces acting on atoms (cartesian axes, Ry/au):

     atom    1 type  2   force =    -0.00000392   -0.00000183   -0.01395706
     atom    2 type  2   force =     0.00000052    0.00000174   -0.00370903
     atom    3 type  2   force =     0.00000104   -0.00000079   -0.00405732
     atom    4 type  2   force =     0.00000081   -0.00000024    0.00054379
     atom    5 type  2   force =     0.00000160    0.00000176    0.00293841
     atom    6 type  2   force =    -0.00000086   -0.00000045    0.00336391
     atom    7 type  1   force =     0.00000080   -0.00000018    0.01487730
     The non-local contrib.  to forces
     atom    1 type  2   force =    -0.00000339   -0.00000309    0.03157610
     atom    2 type  2   force =    -0.00000038    0.00000184    0.01406666
     atom    3 type  2   force =     0.00000041   -0.00000052   -0.00322888
     atom    4 type  2   force =     0.00000007   -0.00000052   -0.00647901
     atom    5 type  2   force =     0.00000140    0.00000156   -0.02892844
     atom    6 type  2   force =    -0.00000031    0.00000034   -0.06737388
     atom    7 type  1   force =     0.00000018   -0.00000029    0.05433655
     The ionic contribution  to forces
     atom    1 type  2   force =    -0.00000785   -0.00001230  140.43742521
     atom    2 type  2   force =     0.00001454    0.00000647   81.45834721
     atom    3 type  2   force =    -0.00000618    0.00000700   21.53929114
     atom    4 type  2   force =    -0.00000156   -0.00000209  -37.55359920
     atom    5 type  2   force =     0.00000172    0.00000123  -96.54634286
     atom    6 type  2   force =    -0.00000095   -0.00000049 -154.77307781
     atom    7 type  1   force =     0.00000028    0.00000019   45.43795632
     The local contribution  to forces
     atom    1 type  2   force =     0.00000613    0.00001095 -140.48408195
     atom    2 type  2   force =    -0.00001324   -0.00000601  -81.47422837
     atom    3 type  2   force =     0.00000601   -0.00000787  -21.54190290
     atom    4 type  2   force =     0.00000071    0.00000204   37.55908019
     atom    5 type  2   force =    -0.00000241   -0.00000185   96.57564319
     atom    6 type  2   force =     0.00000008   -0.00000065  154.83837621
     atom    7 type  1   force =    -0.00000088   -0.00000026  -45.47519812
     The core correction contribution to forces
     atom    1 type  2   force =    -0.00000011    0.00000010    0.00449865
     atom    2 type  2   force =     0.00000000   -0.00000004   -0.00001179
     atom    3 type  2   force =    -0.00000002   -0.00000005    0.00073239
     atom    4 type  2   force =    -0.00000004   -0.00000001   -0.00011765
     atom    5 type  2   force =    -0.00000006   -0.00000007   -0.00009130
     atom    6 type  2   force =    -0.00000006   -0.00000004    0.00474768
     atom    7 type  1   force =     0.00000000    0.00000000    0.00000000
     The Hubbard contrib.    to forces
     atom    1 type  2   force =     0.00000000    0.00000000    0.00000000
     atom    2 type  2   force =     0.00000000    0.00000000    0.00000000
     atom    3 type  2   force =     0.00000000    0.00000000    0.00000000
     atom    4 type  2   force =     0.00000000    0.00000000    0.00000000
     atom    5 type  2   force =     0.00000000    0.00000000    0.00000000
     atom    6 type  2   force =     0.00000000    0.00000000    0.00000000
     atom    7 type  1   force =     0.00000000    0.00000000    0.00000000
     The SCF correction term to forces
     atom    1 type  2   force =     0.00000057    0.00000220   -0.00138915
     atom    2 type  2   force =    -0.00000098   -0.00000082    0.00010854
     atom    3 type  2   force =    -0.00000000    0.00000048    0.00070501
     atom    4 type  2   force =     0.00000091    0.00000007    0.00097540
     atom    5 type  2   force =     0.00000024    0.00000063   -0.00099523
     atom    6 type  2   force =    -0.00000034    0.00000014   -0.00122926
     atom    7 type  1   force =     0.00000051   -0.00000008   -0.00008979

     DFT-D3 dispersion contribution to forces:
     atom    1 type  2   force =     0.00000001    0.00000005   -0.00205722
     atom    2 type  2   force =    -0.00000013    0.00000004   -0.00206258
     atom    3 type  2   force =     0.00000011   -0.00000009    0.00027461
     atom    4 type  2   force =     0.00000001    0.00000000    0.00061276
     atom    5 type  2   force =    -0.00000001    0.00000000    0.00358174
     atom    6 type  2   force =     0.00000001   -0.00000000    0.00184966
     atom    7 type  1   force =    -0.00000000    0.00000000   -0.00219897

     Total force =     0.021601     Total SCF correction =     0.002429
     SCF correction compared to forces is large: reduce conv_thr to get better values


     Computing stress (Cartesian axis) and pressure


     negative rho (up, down):  9.870E-06 0.000E+00
          total   stress  (Ry/bohr**3)                   (kbar)     P=      -17.81
  -0.00016229  -0.00004119   0.00000000          -23.87       -6.06        0.00
  -0.00004119  -0.00012224  -0.00000000           -6.06      -17.98       -0.00
   0.00000000  -0.00000000  -0.00007877            0.00       -0.00      -11.59

     Energy error            =      5.6E-04 Ry
     Gradient error          =      1.5E-02 Ry/Bohr

     number of scf cycles    =   2
     number of bfgs steps    =   1

     energy             old  =    -520.6043199623 Ry
     energy             new  =    -520.6048841052 Ry

     CASE: energy            _new < energy            _old


     WARNING: bfgs curvature condition failed, Theta= 0.909
     new trust radius        =       0.0186412370 bohr
     new conv_thr            =       0.0000000564 Ry


ATOMIC_POSITIONS (angstrom)
Ag           -0.0000360820        2.0277881897       21.6175727615
Ag            1.9117496484        0.6759437942       19.3117879652
Ag            0.0000006114        2.0277526947       17.0192763630
Ag            1.9117861035        0.6759179911       14.6835053471
Ag            0.0000005519        2.0277549267       12.3450642700
Ag            1.9117864706        0.6759168473       10.0038719801
Li            0.4779136363        0.6759534657       23.6542740962



     Writing config-only to output data dir ./Ag_mp-2646971_110_bridge_0/Ag_mp-2646971_110_bridge_0.save/
     NEW-OLD atomic charge density approx. for the potential

     negative rho (up, down):  1.003E-05 0.000E+00

     total cpu time spent up to now is       18.1 secs

     per-process dynamical memory:   207.9 Mb

     Self-consistent Calculation

     iteration #  1     ecut=    55.00 Ry     beta= 0.30
     Davidson diagonalization with overlap
     ethr =  1.00E-06,  avg # of iterations =  4.3

     negative rho (up, down):  9.918E-06 0.000E+00

     total cpu time spent up to now is       18.6 secs

     total energy              =    -520.60538598 Ry
     estimated scf accuracy    <       0.00009024 Ry

     iteration #  2     ecut=    55.00 Ry     beta= 0.30
     Davidson diagonalization with overlap
     ethr =  1.31E-07,  avg # of iterations =  3.2

     negative rho (up, down):  1.073E-05 0.000E+00

     total cpu time spent up to now is       19.0 secs

     total energy              =    -520.60519444 Ry
     estimated scf accuracy    <       0.01299425 Ry

     iteration #  3     ecut=    55.00 Ry     beta= 0.30
     Davidson diagonalization with overlap
     ethr =  1.31E-07,  avg # of iterations =  2.0

     negative rho (up, down):  1.175E-05 0.000E+00

     total cpu time spent up to now is       19.3 secs

     total energy              =    -520.60539955 Ry
     estimated scf accuracy    <       0.00055630 Ry

     iteration #  4     ecut=    55.00 Ry     beta= 0.30
     Davidson diagonalization with overlap
     ethr =  1.31E-07,  avg # of iterations =  1.4

     negative rho (up, down):  1.211E-05 0.000E+00

     total cpu time spent up to now is       19.5 secs

     total energy              =    -520.60541311 Ry
     estimated scf accuracy    <       0.00026751 Ry

     iteration #  5     ecut=    55.00 Ry     beta= 0.30
     Davidson diagonalization with overlap
     ethr =  1.31E-07,  avg # of iterations =  1.2

     negative rho (up, down):  1.113E-05 0.000E+00

     total cpu time spent up to now is       19.8 secs

     total energy              =    -520.60542312 Ry
     estimated scf accuracy    <       0.00001978 Ry

     iteration #  6     ecut=    55.00 Ry     beta= 0.30
     Davidson diagonalization with overlap
     ethr =  2.87E-08,  avg # of iterations =  1.2

     negative rho (up, down):  1.070E-05 0.000E+00

     total cpu time spent up to now is       20.1 secs

     total energy              =    -520.60542458 Ry
     estimated scf accuracy    <       0.00000282 Ry

     iteration #  7     ecut=    55.00 Ry     beta= 0.30
     Davidson diagonalization with overlap
     ethr =  4.09E-09,  avg # of iterations =  1.8

     negative rho (up, down):  1.023E-05 0.000E+00

     total cpu time spent up to now is       20.4 secs

     total energy              =    -520.60542492 Ry
     estimated scf accuracy    <       0.00000021 Ry

     iteration #  8     ecut=    55.00 Ry     beta= 0.30
     Davidson diagonalization with overlap
     ethr =  3.09E-10,  avg # of iterations =  3.4

     negative rho (up, down):  9.822E-06 0.000E+00

     total cpu time spent up to now is       20.8 secs

     total energy              =    -520.60542497 Ry
     estimated scf accuracy    <       0.00000008 Ry

     iteration #  9     ecut=    55.00 Ry     beta= 0.30
     Davidson diagonalization with overlap
     ethr =  1.15E-10,  avg # of iterations =  2.2

     negative rho (up, down):  9.827E-06 0.000E+00

     total cpu time spent up to now is       21.1 secs

     End of self-consistent calculation

          k = 0.0000 0.0000 0.0000 ( 11533 PWs)   bands (ev):

   -43.2615  -3.7553  -3.3020  -2.6931  -2.5519  -2.4662  -2.2777  -1.9203
    -1.8328  -1.6759  -1.4813  -1.3247  -1.3008  -1.2233  -1.1807  -1.1793
    -1.0196  -0.9164  -0.4911  -0.4043  -0.2545  -0.2439  -0.1658  -0.1436
    -0.0698  -0.0452  -0.0130   0.0089   0.0112   0.0203   0.0544   0.0990
     0.1994   0.4907   0.8265   0.8950   2.1221   3.3226   3.8684   6.7971
     7.3942   7.7863

          k = 0.0000 0.1326 0.0000 ( 11489 PWs)   bands (ev):

   -43.2592  -3.4026  -2.9735  -2.4025  -2.3411  -2.2468  -2.0485  -1.8456
    -1.7595  -1.6042  -1.4487  -1.3894  -1.3158  -1.2712  -1.2367  -1.1554
    -1.0350  -0.8380  -0.7556  -0.4407  -0.3650  -0.2861  -0.2572  -0.1921
    -0.1532  -0.1172  -0.0973  -0.0512   0.0078   0.0576   0.0618   0.1313
     0.2146   0.4731   0.6197   1.5936   2.7136   3.8076   4.5916   7.1024
     7.7055   8.0507

          k = 0.0000 0.2652 0.0000 ( 11469 PWs)   bands (ev):

   -43.2540  -2.5853  -2.4102  -2.1779  -2.0777  -2.0358  -1.9047  -1.6925
    -1.6379  -1.5851  -1.5395  -1.4778  -1.3653  -1.2206  -0.9606  -0.8655
    -0.8297  -0.7208  -0.5176  -0.4057  -0.3413  -0.2662  -0.2368  -0.2035
    -0.1794  -0.1516  -0.0624   0.0053   0.0700   0.0911   0.1484   0.2195
     0.2495   0.4046   1.3935   2.6367   3.7921   4.9984   6.2373   7.9875
     8.6255   8.8436

          k = 0.0000 0.3977 0.0000 ( 11401 PWs)   bands (ev):

   -43.2485  -2.4248  -2.3974  -2.2360  -2.2159  -2.0747  -1.9365  -1.8399
    -1.8211  -1.7571  -1.7052  -1.5610  -1.4066  -0.9846  -0.8838  -0.4798
    -0.3679  -0.2943  -0.1955  -0.1391  -0.1009  -0.0533  -0.0116   0.0239
     0.0486   0.1061   0.1780   0.2972   0.3283   0.4595   0.5138   1.0896
     1.1908   1.5728   2.6195   3.8268   5.0459   6.3413   7.0427   7.6269
     8.3356   8.5592

          k = 0.0000-0.5303 0.0000 ( 11418 PWs)   bands (ev):

   -43.2465  -2.5213  -2.5006  -2.3012  -2.2979  -2.1097  -1.9722  -1.9053
    -1.8962  -1.8213  -1.8097  -1.6644  -1.4819  -0.8628  -0.6620  -0.3242
    -0.3046  -0.2036  -0.1310  -0.0881  -0.0687  -0.0672   0.0050   0.0389
     0.0922   0.1770   0.3087   0.3922   0.4833   0.7369   0.7894   3.4253
     3.5469   3.6029   3.6586   3.6809   3.6852   4.0639   6.9196   7.5662
     7.6199   8.0306

          k = 0.1250 0.0442 0.0000 ( 11489 PWs)   bands (ev):

   -43.2593  -3.4038  -2.9785  -2.4298  -2.3405  -2.2568  -2.0506  -1.8381
    -1.7542  -1.5916  -1.4412  -1.3863  -1.3173  -1.2703  -1.2349  -1.1331
    -1.0346  -0.8362  -0.7400  -0.4478  -0.3583  -0.2974  -0.2658  -0.1927
    -0.1628  -0.1187  -0.0960  -0.0509   0.0042   0.0543   0.0603   0.1299
     0.2159   0.4696   0.6328   1.6250   2.7261   3.7890   4.5878   7.0930
     7.7039   8.0479

          k = 0.1250 0.1768 0.0000 ( 11509 PWs)   bands (ev):

   -43.2567  -2.8628  -2.5054  -2.0543  -1.9635  -1.9247  -1.8800  -1.8138
    -1.7311  -1.6864  -1.5227  -1.5063  -1.4299  -1.3221  -1.3113  -1.1835
    -1.1473  -0.8652  -0.7717  -0.4726  -0.4474  -0.2974  -0.2884  -0.1390
    -0.1328  -0.0311   0.0043   0.0177   0.0289   0.0955   0.1122   0.1245
     0.1640   0.3826   1.2538   2.3851   3.4290   4.5278   5.6275   7.5897
     8.2165   8.4886

          k = 0.1250 0.3094 0.0000 ( 11436 PWs)   bands (ev):

   -43.2513  -2.1799  -2.1268  -2.0149  -1.9355  -1.8923  -1.8178  -1.7714
    -1.6688  -1.6111  -1.4909  -1.3996  -1.2778  -1.1189  -0.9653  -0.9345
    -0.8147  -0.7804  -0.6479  -0.5463  -0.4343  -0.3768  -0.2320  -0.1747
    -0.0498   0.0148   0.0574   0.0761   0.1177   0.1267   0.1340   0.5108
     0.6278   1.2399   2.2818   3.4875   4.5906   5.8454   7.2747   8.6358
     9.2732   9.4511

          k = 0.1250 0.4419 0.0000 ( 11400 PWs)   bands (ev):

   -43.2464  -2.3039  -2.2728  -2.0956  -2.0697  -1.9440  -1.8711  -1.8486
    -1.7556  -1.7025  -1.6418  -1.4794  -1.3505  -0.9792  -0.8807  -0.6187
    -0.5778  -0.4525  -0.3137  -0.2427  -0.2163  -0.0778  -0.0380  -0.0105
     0.0464   0.0751   0.1145   0.1457   0.2635   0.4650   0.4904   2.0707
     2.2911   2.8617   3.7185   4.6842   5.6562   6.1941   7.0887   7.4298
     8.1630   8.3556

          k = 0.1250-0.4861 0.0000 ( 11392 PWs)   bands (ev):

   -43.2449  -2.3476  -2.3220  -2.1568  -2.1146  -1.8984  -1.8432  -1.8180
    -1.7988  -1.6652  -1.6485  -1.4930  -1.4227  -1.1127  -0.9666  -0.6990
    -0.6158  -0.4150  -0.3324  -0.2298  -0.2048  -0.1635  -0.0981  -0.0632
    -0.0211   0.0342   0.0847   0.3652   0.5251   0.7627   0.7824   3.2341
     3.3785   3.6492   4.1077   4.5802   4.8397   5.0046   7.1536   7.4864
     7.8874   8.2463

          k = 0.1250-0.3536 0.0000 ( 11413 PWs)   bands (ev):

   -43.2476  -2.1953  -2.1604  -2.0349  -1.9879  -1.7737  -1.7096  -1.6583
    -1.6108  -1.5924  -1.5239  -1.4862  -1.4316  -1.3107  -1.2633  -1.0148
    -0.8942  -0.7100  -0.5346  -0.4363  -0.2919  -0.2056  -0.1407  -0.1280
    -0.0690   0.0281   0.0603   0.2947   0.3499   0.5292   0.5616   1.0505
     1.1615   1.5810   2.5038   3.6931   4.9166   6.2773   7.6189   8.4640
     8.9380   9.2526

          k = 0.1250-0.2210 0.0000 ( 11482 PWs)   bands (ev):

   -43.2530  -2.6141  -2.3009  -1.9727  -1.9437  -1.8331  -1.6936  -1.5447
    -1.4699  -1.4357  -1.3636  -1.3208  -1.3193  -1.2727  -1.1483  -1.0606
    -1.0310  -0.9498  -0.7459  -0.6408  -0.5798  -0.4770  -0.4399  -0.3197
    -0.2939  -0.2697  -0.2329  -0.1373  -0.0713   0.0883   0.1630   0.3538
     0.4898   0.5957   1.2804   2.4487   3.6052   4.8243   5.9729   7.9000
     8.5244   8.7740

          k = 0.1250-0.0884 0.0000 ( 11507 PWs)   bands (ev):

   -43.2579  -3.2858  -2.8458  -2.3144  -2.2582  -2.1739  -1.9379  -1.6246
    -1.5432  -1.4038  -1.2921  -1.2598  -1.2237  -1.1518  -1.0968  -1.0303
    -0.9934  -0.9180  -0.8412  -0.7560  -0.6587  -0.5729  -0.5462  -0.4320
    -0.3913  -0.2691  -0.2284  -0.1590  -0.0489   0.0057   0.1014   0.2470
     0.4432   0.6368   0.7905   1.6288   2.7648   3.9094   4.7235   7.2010
     7.8083   8.1425

          k = 0.2500 0.0884 0.0000 ( 11469 PWs)   bands (ev):

   -43.2542  -2.5872  -2.4208  -2.2260  -2.1139  -2.0362  -1.9046  -1.6805
    -1.6388  -1.5846  -1.5391  -1.4766  -1.3553  -1.1684  -0.9324  -0.8522
    -0.8194  -0.7059  -0.5191  -0.4416  -0.3472  -0.2693  -0.2420  -0.2046
    -0.1813  -0.1479  -0.0627   0.0012   0.0693   0.0886   0.1485   0.2174
     0.2517   0.4179   1.4465   2.7315   3.7928   4.9506   6.2539   7.9277
     8.6168   8.8307

          k = 0.2500 0.2210 0.0000 ( 11436 PWs)   bands (ev):

   -43.2514  -2.1754  -2.1293  -2.0323  -1.9706  -1.8967  -1.8215  -1.7697
    -1.6795  -1.6069  -1.4947  -1.4025  -1.2591  -1.0937  -0.9617  -0.8930
    -0.8019  -0.7797  -0.6778  -0.5479  -0.4358  -0.3776  -0.2398  -0.1626
    -0.0544   0.0141   0.0562   0.0762   0.1167   0.1265   0.1341   0.5098
     0.6287   1.2550   2.3250   3.5638   4.5785   5.8173   7.3269   8.4918
     9.2565   9.3351

          k = 0.2500 0.3536 0.0000 ( 11393 PWs)   bands (ev):

   -43.2465  -2.0120  -1.9817  -1.8353  -1.7834  -1.6296  -1.6052  -1.5580
    -1.5051  -1.4908  -1.4377  -1.3733  -1.2435  -1.1679  -1.0873  -0.9597
    -0.9007  -0.8618  -0.8106  -0.6397  -0.5692  -0.3427  -0.3301  -0.1156
    -0.0504   0.0416   0.1185   0.1252   0.1332   0.2084   0.2311   1.6731
     2.0276   2.7567   3.7700   4.9015   5.9739   7.2220   8.2745   8.9016
     9.3433   9.6415

          k = 0.2500 0.4861 0.0000 ( 11399 PWs)   bands (ev):

   -43.2425  -2.0464  -2.0238  -1.9327  -1.9074  -1.8248  -1.7074  -1.6487
    -1.5801  -1.5232  -1.4931  -1.3341  -1.2566  -1.1280  -1.0209  -0.9456
    -0.8503  -0.8432  -0.6245  -0.5026  -0.4060  -0.2764  -0.1664  -0.0812
     0.0270   0.0908   0.1289   0.2309   0.3105   0.4974   0.5123   3.7648
     4.1219   4.7164   5.4430   6.1029   6.2823   6.5584   7.3982   7.7832
     8.3458   8.8035

          k = 0.2500-0.4419 0.0000 ( 11392 PWs)   bands (ev):

   -43.2414  -2.0762  -2.0534  -2.0101  -1.9954  -1.9361  -1.8611  -1.7795
    -1.6535  -1.6416  -1.5306  -1.4049  -1.3155  -1.1081  -0.9783  -0.8853
    -0.7738  -0.7257  -0.5784  -0.4952  -0.2803  -0.2330  -0.1955  -0.0908
    -0.0725   0.0567   0.1750   0.3699   0.5341   0.7126   0.7399   3.3154
     3.5875   4.0941   4.8096   5.7087   6.6026   6.8383   7.6928   8.0328
     8.6855   8.8901

          k = 0.2500-0.3094 0.0000 ( 11406 PWs)   bands (ev):

   -43.2441  -2.1577  -2.0083  -1.9758  -1.9403  -1.8665  -1.8319  -1.7343
    -1.6965  -1.5931  -1.5462  -1.3963  -1.3071  -0.9717  -0.8703  -0.8454
    -0.7271  -0.6609  -0.5762  -0.5283  -0.4356  -0.3764  -0.2656  -0.1321
    -0.1227   0.0605   0.1731   0.2498   0.2914   0.4713   0.5780   1.1051
     1.4264   2.0670   2.9655   4.0535   5.2176   6.5647   7.9785   9.3473
    10.0777  10.1244

          k = 0.2500-0.1768 0.0000 ( 11422 PWs)   bands (ev):

   -43.2489  -2.3917  -2.0517  -2.0069  -1.8161  -1.6871  -1.5861  -1.5795
    -1.5422  -1.4840  -1.3146  -1.2748  -1.1143  -0.9298  -0.9173  -0.8972
    -0.7994  -0.7682  -0.6993  -0.6370  -0.6042  -0.5460  -0.4051  -0.3980
    -0.3201  -0.3030  -0.2805  -0.2487  -0.1367  -0.0925   0.3377   0.3912
     0.7037   0.9506   1.8041   2.9518   4.0753   5.3414   6.6069   8.3699
     9.0113   9.2499

          k = 0.2500-0.0442 0.0000 ( 11482 PWs)   bands (ev):

   -43.2532  -2.6143  -2.3052  -1.9898  -1.9573  -1.8631  -1.6965  -1.5362
    -1.4880  -1.4321  -1.3624  -1.3199  -1.3115  -1.2607  -1.1203  -1.0333
    -1.0262  -0.9550  -0.7476  -0.6744  -0.5499  -0.4747  -0.4277  -0.3172
    -0.2971  -0.2751  -0.2303  -0.1396  -0.0753   0.0770   0.1702   0.3464
     0.5059   0.5902   1.3101   2.5100   3.6126   4.7879   5.9749   7.8695
     8.5193   8.7665

          k = 0.3750 0.1326 0.0000 ( 11401 PWs)   bands (ev):

   -43.2489  -2.4167  -2.4120  -2.2658  -2.2223  -2.1027  -1.9354  -1.8341
    -1.8187  -1.7493  -1.6989  -1.5440  -1.3981  -0.9543  -0.8750  -0.4708
    -0.4246  -0.2967  -0.2002  -0.1444  -0.1006  -0.0535  -0.0096   0.0229
     0.0489   0.1072   0.1809   0.2923   0.3307   0.4640   0.5148   1.0892
     1.1918   1.5932   2.7247   4.0698   5.1397   6.2524   7.0947   7.6186
     8.0041   8.5015

          k = 0.3750 0.2652 0.0000 ( 11400 PWs)   bands (ev):

   -43.2467  -2.2913  -2.2800  -2.0984  -2.0797  -1.9688  -1.8697  -1.8543
    -1.7545  -1.7039  -1.6283  -1.4735  -1.3529  -0.9582  -0.8763  -0.6422
    -0.5745  -0.4674  -0.3173  -0.2444  -0.2078  -0.0778  -0.0389  -0.0002
     0.0481   0.0747   0.1150   0.1486   0.2615   0.4681   0.4886   2.0565
     2.2811   2.8876   3.8553   4.9768   5.8825   6.3202   6.5078   7.4237
     7.9694   8.3376

          k = 0.3750 0.3977 0.0000 ( 11399 PWs)   bands (ev):

   -43.2426  -2.0412  -2.0186  -1.9147  -1.9083  -1.8093  -1.7067  -1.6523
    -1.5829  -1.5253  -1.4890  -1.3404  -1.2897  -1.1404  -1.0213  -0.9466
    -0.8661  -0.8413  -0.6228  -0.5028  -0.4048  -0.2704  -0.1513  -0.0874
     0.0257   0.0902   0.1283   0.2318   0.3105   0.4982   0.5116   3.7619
     4.1431   4.8189   5.6485   6.0610   6.3538   6.6105   7.0592   7.7993
     8.2176   8.8265

          k = 0.3750 0.5303 0.0000 ( 11360 PWs)   bands (ev):

   -43.2389  -2.1406  -2.0748  -2.0346  -2.0021  -1.9763  -1.8872  -1.7822
    -1.7535  -1.6738  -1.6113  -1.4974  -1.4114  -1.2745  -1.1089  -0.8183
    -0.7201  -0.4341  -0.3663  -0.1694  -0.0901   0.0364   0.0979   0.1372
     0.1484   0.2338   0.2577   0.2631   0.2996   0.4800   0.5210   5.6472
     5.8809   6.0931   6.3471   6.5622   7.1183   7.4586   7.6461   7.8925
     8.1510   8.4784

          k = 0.3750-0.3977 0.0000 ( 11395 PWs)   bands (ev):

   -43.2380  -2.3385  -2.3291  -2.3067  -2.1626  -2.1376  -2.0951  -1.9352
    -1.8516  -1.7828  -1.7645  -1.6249  -1.3403  -1.1201  -0.8000  -0.6855
    -0.5174  -0.2310  -0.1763  -0.1239  -0.0764   0.1048   0.1519   0.2594
     0.2978   0.3886   0.4781   0.5469   0.6073   0.6595   0.6764   3.5476
     4.0332   4.7029   5.4460   6.4168   7.5934   8.4018   8.5453   8.7384
     9.0617   9.1357

          k = 0.3750-0.2652 0.0000 ( 11394 PWs)   bands (ev):

   -43.2402  -2.3806  -2.2975  -2.2483  -2.1566  -2.0913  -2.0615  -1.9201
    -1.7809  -1.7664  -1.7059  -1.4849  -1.2679  -1.0035  -0.7744  -0.6056
    -0.4412  -0.3268  -0.2489  -0.1345  -0.1102   0.0584   0.0773   0.1438
     0.2794   0.2834   0.3660   0.4520   0.5236   0.5540   0.6265   1.5577
     2.1785   3.0037   3.9114   4.9041   6.0494   7.3950   8.7122   9.6430
    10.3714  10.5372

          k = 0.3750-0.1326 0.0000 ( 11406 PWs)   bands (ev):

   -43.2443  -2.1526  -2.0051  -1.9736  -1.9393  -1.8642  -1.8242  -1.7362
    -1.6693  -1.5833  -1.5446  -1.3941  -1.3072  -1.0343  -0.8746  -0.8465
    -0.7541  -0.6604  -0.5897  -0.5390  -0.4398  -0.3755  -0.2629  -0.1337
    -0.1059   0.0690   0.1722   0.2487   0.2889   0.4670   0.5762   1.1254
     1.4476   2.0897   3.0016   4.1132   5.2151   6.5213   7.9955   9.2745
     9.9369  10.1177

          k = 0.3750-0.0000 0.0000 ( 11413 PWs)   bands (ev):

   -43.2479  -2.1792  -2.1692  -2.0240  -2.0031  -1.8085  -1.7031  -1.6568
    -1.6136  -1.5888  -1.5245  -1.4903  -1.4217  -1.3026  -1.2578  -1.0147
    -0.8891  -0.7263  -0.5402  -0.4859  -0.2833  -0.2028  -0.1402  -0.1252
    -0.0657   0.0363   0.0571   0.3021   0.3428   0.5301   0.5615   1.0713
     1.1710   1.6091   2.5795   3.8455   4.9307   6.1991   7.8041   8.2391
     8.7094   9.2705

          k =-0.5000-0.1768 0.0000 ( 11418 PWs)   bands (ev):

   -43.2469  -2.5147  -2.5094  -2.3372  -2.2843  -2.1449  -1.9685  -1.9009
    -1.8929  -1.8180  -1.7963  -1.6525  -1.4786  -0.8030  -0.6585  -0.4011
    -0.2843  -0.2100  -0.1345  -0.0897  -0.0694  -0.0676   0.0070   0.0400
     0.0922   0.1818   0.3050   0.3985   0.4771   0.7463   0.7849   2.9466
     3.5554   3.5970   3.6597   3.6786   4.0639   5.6740   5.8395   6.9256
     7.7163   8.0233

          k =-0.5000-0.0442 0.0000 ( 11392 PWs)   bands (ev):

   -43.2452  -2.3327  -2.3299  -2.1392  -2.1301  -1.9306  -1.8343  -1.8107
    -1.8021  -1.6639  -1.6463  -1.4940  -1.4221  -1.0936  -0.9519  -0.7000
    -0.6283  -0.4631  -0.3498  -0.2280  -0.2056  -0.1588  -0.0994  -0.0528
    -0.0211   0.0397   0.0847   0.3783   0.5231   0.7637   0.7828   3.1286
     3.3695   3.6580   4.2247   4.7706   5.0003   5.9488   6.1087   7.1788
     7.8706   8.2677

          k =-0.5000 0.0884 0.0000 ( 11392 PWs)   bands (ev):

   -43.2416  -2.0704  -2.0379  -2.0071  -1.9920  -1.9191  -1.8596  -1.7641
    -1.6472  -1.6421  -1.5360  -1.4000  -1.3254  -1.1332  -0.9953  -0.8938
    -0.8011  -0.7372  -0.5850  -0.4952  -0.2808  -0.2254  -0.1965  -0.0893
[...]
    -1.5060  -1.4927  -1.3933  -1.3766  -1.3631  -1.2990  -1.1356  -1.0651
    -1.0452  -0.9831  -0.7866  -0.6108  -0.5677  -0.5068  -0.4451  -0.3372
    -0.3163  -0.2811  -0.2407  -0.1483  -0.0843   0.0772   0.1518   0.3444
     0.4903   0.6123   1.2865   2.4453   3.5673   4.7921   5.9719   7.9034
     8.5567   8.7927

          k = 0.1250-0.0884 0.0000 ( 11507 PWs)   bands (ev):

   -43.3752  -3.3743  -2.8776  -2.3701  -2.2985  -2.1728  -1.9892  -1.6588
    -1.5607  -1.4185  -1.3885  -1.2592  -1.2408  -1.1965  -1.0938  -1.0484
    -1.0235  -0.9333  -0.8713  -0.7549  -0.6546  -0.5766  -0.5613  -0.4550
    -0.4025  -0.2854  -0.2425  -0.1635  -0.0591  -0.0188   0.0835   0.2350
     0.4324   0.6298   0.8234   1.6165   2.7314   3.8523   4.7153   7.2108
     7.8317   8.1686

          k = 0.2500 0.0884 0.0000 ( 11469 PWs)   bands (ev):

   -43.3715  -2.6687  -2.4673  -2.2344  -2.1104  -2.0909  -1.9639  -1.6734
    -1.6695  -1.6274  -1.6012  -1.5354  -1.3881  -1.1528  -0.9477  -0.8681
    -0.8404  -0.7174  -0.5508  -0.4063  -0.3334  -0.2778  -0.2584  -0.2381
    -0.2187  -0.1497  -0.0819  -0.0174   0.0521   0.0683   0.1296   0.2027
     0.2373   0.4071   1.4418   2.7111   3.7381   4.9308   6.2551   7.9212
     8.6514   8.8425

          k = 0.2500 0.2210 0.0000 ( 11436 PWs)   bands (ev):

   -43.3688  -2.2401  -2.2072  -2.0624  -1.9682  -1.9382  -1.8758  -1.8046
    -1.7020  -1.6119  -1.5427  -1.4511  -1.2509  -1.1006  -0.9926  -0.9051
    -0.8364  -0.7877  -0.6575  -0.5755  -0.4472  -0.3858  -0.2429  -0.1463
    -0.0711  -0.0020   0.0279   0.0477   0.0872   0.1016   0.1059   0.4948
     0.6122   1.2503   2.3243   3.5362   4.5254   5.8223   7.3167   8.4779
     9.3017   9.3651

          k = 0.2500 0.3536 0.0000 ( 11393 PWs)   bands (ev):

   -43.3640  -2.0661  -2.0573  -1.8636  -1.8365  -1.6540  -1.6361  -1.6227
    -1.5667  -1.5373  -1.4605  -1.4419  -1.2391  -1.0997  -1.0457  -0.9598
    -0.9355  -0.9136  -0.8381  -0.6717  -0.5717  -0.3375  -0.3131  -0.1146
    -0.0513   0.0367   0.0931   0.1031   0.1190   0.1786   0.1997   1.6468
     2.0237   2.7542   3.7638   4.8662   5.9328   7.2581   8.3150   8.8516
     9.3068   9.6338

          k = 0.2500 0.4861 0.0000 ( 11399 PWs)   bands (ev):

   -43.3600  -2.1022  -2.0959  -1.9734  -1.9622  -1.8412  -1.7723  -1.6647
    -1.6290  -1.5716  -1.5677  -1.3181  -1.2489  -1.1505  -1.0594  -0.9917
    -0.8633  -0.7889  -0.6128  -0.5354  -0.4331  -0.2868  -0.1506  -0.0782
     0.0193   0.0784   0.1278   0.2209   0.2926   0.4894   0.5033   3.7540
     4.1164   4.7063   5.4379   6.1176   6.2340   6.5323   7.3442   7.7903
     8.3055   8.7899

          k = 0.2500-0.4419 0.0000 ( 11392 PWs)   bands (ev):

   -43.3590  -2.1162  -2.1090  -2.0867  -2.0631  -1.9745  -1.9118  -1.7971
    -1.6970  -1.6608  -1.5605  -1.4417  -1.3434  -1.1320  -0.9895  -0.9368
    -0.7538  -0.7329  -0.5387  -0.5307  -0.3075  -0.2410  -0.2110  -0.1013
    -0.0713   0.0615   0.1861   0.3725   0.5198   0.7092   0.7326   3.3210
     3.5778   4.0840   4.7918   5.6950   6.6115   6.7830   7.6597   8.0228
     8.6798   8.8626

          k = 0.2500-0.3094 0.0000 ( 11406 PWs)   bands (ev):

   -43.3616  -2.2349  -2.0799  -2.0099  -2.0041  -1.9123  -1.8683  -1.7899
    -1.7205  -1.6037  -1.5551  -1.4439  -1.3671  -0.9722  -0.9307  -0.8024
    -0.7326  -0.7030  -0.5915  -0.5244  -0.4431  -0.4068  -0.2745  -0.1391
    -0.1168   0.0757   0.1704   0.2258   0.2740   0.4558   0.6057   1.0951
     1.4261   2.0707   2.9720   4.0396   5.1821   6.5611   7.9660   9.3487
    10.1206  10.1318

          k = 0.2500-0.1768 0.0000 ( 11422 PWs)   bands (ev):

   -43.3664  -2.4794  -2.1052  -2.0641  -1.8503  -1.6878  -1.6630  -1.6396
    -1.6364  -1.4901  -1.3168  -1.2935  -1.1614  -0.9887  -0.9201  -0.8846
    -0.8514  -0.8018  -0.6731  -0.6303  -0.6012  -0.5409  -0.4312  -0.4244
    -0.3241  -0.3211  -0.2836  -0.2625  -0.1462  -0.0973   0.3283   0.3942
     0.7401   0.9564   1.8142   2.9418   4.0326   5.3197   6.5962   8.3691
     9.0480   9.2610

          k = 0.2500-0.0442 0.0000 ( 11482 PWs)   bands (ev):

   -43.3705  -2.7037  -2.3503  -2.0445  -2.0003  -1.8591  -1.7618  -1.5243
    -1.5116  -1.5022  -1.3928  -1.3747  -1.3651  -1.2954  -1.1217  -1.0588
    -1.0004  -0.9864  -0.7861  -0.6386  -0.5545  -0.5055  -0.4268  -0.3321
    -0.3169  -0.2864  -0.2391  -0.1507  -0.0865   0.0669   0.1570   0.3383
     0.5016   0.6090   1.3094   2.4934   3.5640   4.7569   5.9711   7.8699
     8.5518   8.7821

          k = 0.3750 0.1326 0.0000 ( 11401 PWs)   bands (ev):

   -43.3663  -2.4805  -2.4745  -2.2702  -2.2483  -2.1069  -1.9884  -1.8718
    -1.8557  -1.7643  -1.7313  -1.5638  -1.4322  -0.9627  -0.9157  -0.4907
    -0.3643  -0.3116  -0.2269  -0.1573  -0.1433  -0.0902  -0.0239   0.0190
     0.0206   0.0946   0.1567   0.2721   0.3153   0.4567   0.5037   1.0977
     1.1583   1.5825   2.7131   4.0247   5.0509   6.2250   7.0953   7.6022
     7.9171   8.5314

          k = 0.3750 0.2652 0.0000 ( 11400 PWs)   bands (ev):

   -43.3641  -2.3548  -2.3505  -2.1097  -2.1064  -1.9636  -1.9298  -1.8995
    -1.7959  -1.7263  -1.6415  -1.4885  -1.3941  -0.9635  -0.9109  -0.6410
    -0.5771  -0.4750  -0.3103  -0.2506  -0.2231  -0.0928  -0.0687  -0.0151
     0.0283   0.0501   0.0877   0.1299   0.2363   0.4611   0.4815   2.0423
     2.2700   2.8788   3.8378   4.9243   5.7990   6.2409   6.5146   7.4316
     7.9241   8.3784

          k = 0.3750 0.3977 0.0000 ( 11399 PWs)   bands (ev):

   -43.3601  -2.1029  -2.0947  -1.9703  -1.9607  -1.8181  -1.7726  -1.6610
    -1.6305  -1.5724  -1.5662  -1.3053  -1.2672  -1.1755  -1.0598  -0.9937
    -0.8776  -0.7820  -0.6213  -0.5357  -0.4325  -0.2835  -0.1386  -0.0804
     0.0182   0.0781   0.1274   0.2217   0.2928   0.4901   0.5029   3.7499
     4.1334   4.8021   5.6222   6.0639   6.3157   6.5994   6.9503   7.7980
     8.1719   8.8336

          k = 0.3750 0.5303 0.0000 ( 11360 PWs)   bands (ev):

   -43.3564  -2.2002  -2.1455  -2.1080  -2.0796  -2.0086  -1.9069  -1.8110
    -1.7941  -1.7048  -1.6481  -1.5260  -1.4200  -1.3058  -1.1119  -0.8554
    -0.7209  -0.3998  -0.3440  -0.1930  -0.0829   0.0411   0.0875   0.1207
     0.1310   0.2139   0.2438   0.2690   0.2944   0.4806   0.5113   5.7041
     5.8567   6.0754   6.3173   6.5403   7.0834   7.4428   7.6133   7.8657
     8.1117   8.4551

          k = 0.3750-0.3977 0.0000 ( 11395 PWs)   bands (ev):

   -43.3556  -2.4102  -2.3952  -2.3780  -2.1832  -2.1617  -2.1398  -1.9352
    -1.9305  -1.8207  -1.7987  -1.6593  -1.3797  -1.1363  -0.7928  -0.7118
    -0.4752  -0.2444  -0.1733  -0.1317  -0.0643   0.0930   0.1324   0.2271
     0.3151   0.3843   0.4802   0.5336   0.5896   0.6517   0.6573   3.5256
     4.0361   4.6992   5.4311   6.4118   7.5952   8.4070   8.5210   8.7396
     9.0487   9.0867

          k = 0.3750-0.2652 0.0000 ( 11394 PWs)   bands (ev):

   -43.3578  -2.4583  -2.3714  -2.3078  -2.1709  -2.1309  -2.0889  -1.9186
    -1.8755  -1.8127  -1.7331  -1.5226  -1.2880  -1.0297  -0.7740  -0.5638
    -0.4553  -0.3458  -0.2772  -0.1172  -0.1036   0.0387   0.0466   0.1774
     0.2435   0.2673   0.3560   0.4257   0.5011   0.5332   0.6622   1.5277
     2.1852   3.0096   3.9134   4.8854   6.0218   7.4005   8.6997   9.6551
    10.3491  10.5376

          k = 0.3750-0.1326 0.0000 ( 11406 PWs)   bands (ev):

   -43.3618  -2.2337  -2.0794  -2.0096  -2.0031  -1.9114  -1.8632  -1.7900
    -1.7152  -1.5782  -1.5478  -1.4413  -1.3657  -1.0012  -0.9323  -0.8053
    -0.7590  -0.7023  -0.5945  -0.5553  -0.4443  -0.4057  -0.2730  -0.1351
    -0.1118   0.0841   0.1699   0.2251   0.2724   0.4524   0.6047   1.1074
     1.4451   2.0891   3.0023   4.0870   5.1680   6.5198   7.9768   9.2604
     9.9815  10.1474

          k = 0.3750-0.0000 0.0000 ( 11413 PWs)   bands (ev):

   -43.3653  -2.2455  -2.2432  -2.0600  -2.0401  -1.8071  -1.7414  -1.6765
    -1.6486  -1.6151  -1.5813  -1.5418  -1.4453  -1.3368  -1.2760  -1.0303
    -0.9178  -0.7119  -0.5617  -0.4365  -0.3039  -0.2389  -0.1655  -0.1426
    -0.0821   0.0425   0.0501   0.2920   0.3330   0.5315   0.5539   1.0644
     1.1529   1.5984   2.5708   3.8080   4.8637   6.1921   7.7761   8.2472
     8.6424   9.2884

          k =-0.5000-0.1768 0.0000 ( 11418 PWs)   bands (ev):

   -43.3643  -2.5782  -2.5761  -2.3397  -2.3117  -2.1385  -2.0163  -1.9485
    -1.9272  -1.8436  -1.8088  -1.6654  -1.5264  -0.7887  -0.7002  -0.3183
    -0.3061  -0.2371  -0.1540  -0.1161  -0.1065  -0.1048  -0.0291   0.0198
     0.0569   0.1983   0.2716   0.3790   0.4564   0.7456   0.7844   3.0344
     3.5313   3.5492   3.6203   3.6313   4.0246   5.6105   5.6108   6.9276
     7.7024   8.0619

          k =-0.5000-0.0442 0.0000 ( 11392 PWs)   bands (ev):

   -43.3627  -2.4020  -2.3969  -2.1662  -2.1548  -1.9023  -1.8902  -1.8632
    -1.8285  -1.6907  -1.6765  -1.5166  -1.4601  -1.1212  -0.9870  -0.7214
    -0.6167  -0.4272  -0.3286  -0.2690  -0.2446  -0.1815  -0.1166  -0.0715
    -0.0452   0.0279   0.0745   0.3765   0.5007   0.7642   0.7808   3.1783
     3.3262   3.6328   4.2010   4.7385   4.9522   5.8646   5.9689   7.1845
     7.8558   8.2821

          k =-0.5000 0.0884 0.0000 ( 11392 PWs)   bands (ev):

   -43.3591  -2.1159  -2.1078  -2.0894  -2.0608  -1.9560  -1.9118  -1.7742
    -1.6915  -1.6564  -1.5625  -1.4345  -1.3491  -1.1391  -1.0053  -0.9450
    -0.7624  -0.7513  -0.5599  -0.5314  -0.3076  -0.2332  -0.2122  -0.0988
    -0.0695   0.0630   0.1831   0.3723   0.5223   0.7100   0.7324   3.3287
     3.5961   4.1322   4.9013   5.8381   6.6980   6.9390   7.0198   7.9755
     8.5560   8.9111

          k =-0.5000 0.2210 0.0000 ( 11395 PWs)   bands (ev):

   -43.3557  -2.4098  -2.3950  -2.3779  -2.1828  -2.1610  -2.1379  -1.9356
    -1.9297  -1.8250  -1.7921  -1.6444  -1.3616  -1.1689  -0.7959  -0.7128
    -0.4677  -0.2467  -0.1748  -0.1346  -0.0639   0.0939   0.1302   0.2271
     0.3016   0.3871   0.4752   0.5343   0.5896   0.6516   0.6573   3.5329
     4.0548   4.7281   5.4562   6.4253   7.6035   8.1652   8.4882   8.7107
     9.0377   9.0984

          k =-0.5000-0.7071 0.0000 ( 11406 PWs)   bands (ev):

   -43.3543  -2.5804  -2.5483  -2.5311  -2.3474  -2.2931  -2.2672  -2.1233
    -1.9849  -1.9713  -1.8500  -1.6085  -1.2957  -1.0971  -0.6687  -0.5088
    -0.4906  -0.2692  -0.1541  -0.0832  -0.0590   0.1111   0.2622   0.5812
     0.6059   0.6454   0.6649   0.7285   0.8119   0.8845   0.9179   3.7074
     4.5567   5.1044   5.7393   7.0879   7.3096   7.4844   7.8667   8.4782
     8.5098   9.1789

     the Fermi energy is     3.5736 ev

!    total energy              =    -520.60807537 Ry
     estimated scf accuracy    <          2.0E-09 Ry
     smearing contrib. (-TS)   =      -0.00320744 Ry
     internal energy E=F+TS    =    -520.60486793 Ry

     The total energy is F=E-TS. E is the sum of the following terms:
     one-electron contribution =   -6443.54431383 Ry
     hartree contribution      =    3272.20821586 Ry
     xc contribution           =    -137.53634617 Ry
     ewald contribution        =    2788.45202995 Ry
     DFT-D3 Dispersion         =      -0.18445373 Ry

     convergence has been achieved in   9 iterations

     negative rho (up, down):  9.572E-06 0.000E+00

     Forces acting on atoms (cartesian axes, Ry/au):

     atom    1 type  2   force =    -0.00000018   -0.00000005   -0.00080813
     atom    2 type  2   force =    -0.00000057    0.00000046   -0.00048975
     atom    3 type  2   force =     0.00000054   -0.00000048    0.00098877
     atom    4 type  2   force =     0.00000011    0.00000003   -0.00030011
     atom    5 type  2   force =    -0.00000015    0.00000000    0.00016781
     atom    6 type  2   force =     0.00000005   -0.00000005    0.00071863
     atom    7 type  1   force =     0.00000019    0.00000008   -0.00027722
     The non-local contrib.  to forces
     atom    1 type  2   force =     0.00000033    0.00000011    0.02018153
     atom    2 type  2   force =    -0.00000017    0.00000016    0.01511468
     atom    3 type  2   force =     0.00000010   -0.00000016    0.00266209
     atom    4 type  2   force =     0.00000018   -0.00000010   -0.00644468
     atom    5 type  2   force =    -0.00000000    0.00000001   -0.03157240
     atom    6 type  2   force =    -0.00000001   -0.00000001   -0.06998478
     atom    7 type  1   force =     0.00000011    0.00000007    0.04451686
     The ionic contribution  to forces
     atom    1 type  2   force =    -0.00000582    0.00000099  141.48132819
     atom    2 type  2   force =     0.00001611   -0.00001070   82.88691266
     atom    3 type  2   force =    -0.00001632    0.00001074   22.75597296
     atom    4 type  2   force =     0.00000226    0.00000195  -37.55858852
     atom    5 type  2   force =     0.00000120   -0.00000579  -97.72573904
     atom    6 type  2   force =    -0.00000168    0.00000195 -156.61387375
     atom    7 type  1   force =     0.00000425    0.00000086   44.77398749
     The local contribution  to forces
     atom    1 type  2   force =     0.00000531   -0.00000110 -141.50247388
     atom    2 type  2   force =    -0.00001624    0.00001082  -82.89947940
     atom    3 type  2   force =     0.00001657   -0.00001083  -22.75719228
     atom    4 type  2   force =    -0.00000230   -0.00000179   37.56432232
     atom    5 type  2   force =    -0.00000135    0.00000571   97.75316308
     atom    6 type  2   force =     0.00000173   -0.00000193  156.67701186
     atom    7 type  1   force =    -0.00000416   -0.00000086  -44.81684829
     The core correction contribution to forces
     atom    1 type  2   force =     0.00000003    0.00000001    0.00220391
     atom    2 type  2   force =    -0.00000001    0.00000001   -0.00055149
     atom    3 type  2   force =     0.00000001   -0.00000000   -0.00009639
     atom    4 type  2   force =    -0.00000000   -0.00000001   -0.00001571
     atom    5 type  2   force =     0.00000001    0.00000001    0.00030588
     atom    6 type  2   force =     0.00000000   -0.00000000    0.00518835
     atom    7 type  1   force =     0.00000000    0.00000000    0.00000000
     The Hubbard contrib.    to forces
     atom    1 type  2   force =     0.00000000    0.00000000    0.00000000
     atom    2 type  2   force =     0.00000000    0.00000000    0.00000000
     atom    3 type  2   force =     0.00000000    0.00000000    0.00000000
     atom    4 type  2   force =     0.00000000    0.00000000    0.00000000
     atom    5 type  2   force =     0.00000000    0.00000000    0.00000000
     atom    6 type  2   force =     0.00000000    0.00000000    0.00000000
     atom    7 type  1   force =     0.00000000    0.00000000    0.00000000
     The SCF correction term to forces
     atom    1 type  2   force =    -0.00000005   -0.00000003   -0.00003235
     atom    2 type  2   force =    -0.00000000   -0.00000000    0.00011272
     atom    3 type  2   force =    -0.00000008   -0.00000006    0.00001429
     atom    4 type  2   force =    -0.00000002   -0.00000002   -0.00018392
     atom    5 type  2   force =     0.00000005    0.00000001   -0.00002093
     atom    6 type  2   force =    -0.00000001   -0.00000004    0.00012441
     atom    7 type  1   force =     0.00000000    0.00000001   -0.00000710

     DFT-D3 dispersion contribution to forces:
     atom    1 type  2   force =     0.00000002   -0.00000002   -0.00201290
     atom    2 type  2   force =    -0.00000025    0.00000018   -0.00259629
     atom    3 type  2   force =     0.00000026   -0.00000018   -0.00036927
     atom    4 type  2   force =    -0.00000001   -0.00000000    0.00061302
     atom    5 type  2   force =    -0.00000005    0.00000005    0.00403384
     atom    6 type  2   force =     0.00000003   -0.00000002    0.00225516
     atom    7 type  1   force =    -0.00000000    0.00000000   -0.00192356

     Total force =     0.001607     Total SCF correction =     0.000252
     SCF correction compared to forces is large: reduce conv_thr to get better values


     Computing stress (Cartesian axis) and pressure


     negative rho (up, down):  9.572E-06 0.000E+00
          total   stress  (Ry/bohr**3)                   (kbar)     P=      -17.15
  -0.00014799  -0.00002595  -0.00000000          -21.77       -3.82       -0.00
  -0.00002595  -0.00012544   0.00000000           -3.82      -18.45        0.00
  -0.00000000   0.00000000  -0.00007633           -0.00        0.00      -11.23

     Energy error            =      1.5E-05 Ry
     Gradient error          =      9.9E-04 Ry/Bohr

     bfgs converged in  15 scf cycles and  14 bfgs steps
     (criteria: energy <  1.0E-04 Ry, force <  1.0E-03 Ry/Bohr)

     End of BFGS Geometry Optimization

     Final energy             =    -520.6080753655 Ry

     File ./Ag_mp-2646971_110_bridge_0/Ag_mp-2646971_110_bridge_0.bfgs deleted, as requested
Begin final coordinates

ATOMIC_POSITIONS (angstrom)
Ag           -0.0000447810        2.0277850916       21.5652796490
Ag            1.9117322200        0.6759551538       19.2337870979
Ag            0.0000138418        2.0277450811       16.9492568937
Ag            1.9117903304        0.6759153675       14.6712864615
Ag           -0.0000000870        2.0277579647       12.3868091757
Ag            1.9117939503        0.6759149418       10.0761632561
Li            0.4779154658        0.6759543089       23.7527702493
End final coordinates



     Writing all to output data dir ./Ag_mp-2646971_110_bridge_0/Ag_mp-2646971_110_bridge_0.save/

     init_run     :      5.90s CPU      6.69s WALL (       1 calls)
     electrons    :     45.73s CPU     52.73s WALL (      15 calls)
     update_pot   :      2.54s CPU      2.68s WALL (      14 calls)
     forces       :      2.35s CPU      2.92s WALL (      15 calls)
     force_dftd3  :      0.15s CPU      0.43s WALL (      15 calls)
     stress       :      8.45s CPU      8.66s WALL (      15 calls)
     stres_dftd3  :      0.10s CPU      0.15s WALL (      15 calls)

     Called by init_run:
     wfcinit      :      0.44s CPU      0.81s WALL (       1 calls)
     potinit      :      1.80s CPU      1.83s WALL (       1 calls)
     hinit0       :      3.55s CPU      3.91s WALL (       1 calls)

     Called by electrons:
     c_bands      :     38.11s CPU     42.35s WALL (     140 calls)
     sum_band     :      5.49s CPU      6.17s WALL (     140 calls)
     v_of_rho     :      0.94s CPU      1.30s WALL (     149 calls)
     newd         :      0.74s CPU      0.79s WALL (     149 calls)
     mix_rho      :      0.13s CPU      0.13s WALL (     140 calls)
     energy_dftd3 :      0.03s CPU      0.03s WALL (      15 calls)

     Called by c_bands:
     init_us_2    :      0.25s CPU      0.27s WALL (    2799 calls)
     init_us_2:cp :      0.24s CPU      0.27s WALL (    2799 calls)
     cegterg      :     33.87s CPU     36.24s WALL (    1260 calls)

     Called by *egterg:
     cdiaghg      :      9.93s CPU     10.07s WALL (    4881 calls)
     h_psi        :     19.34s CPU     21.33s WALL (    5070 calls)
     s_psi        :      0.82s CPU      0.86s WALL (    5070 calls)
     g_psi        :      0.07s CPU      0.08s WALL (    3801 calls)

     Called by h_psi:
     h_psi:calbec :      1.65s CPU      2.02s WALL (    5070 calls)
     vloc_psi     :     16.82s CPU     18.38s WALL (    5070 calls)
     add_vuspsi   :      0.80s CPU      0.87s WALL (    5070 calls)

     General routines
     calbec       :      2.86s CPU      3.37s WALL (    7005 calls)
     fft          :      4.60s CPU      5.08s WALL (    2302 calls)
     ffts         :      1.83s CPU      2.12s WALL (     289 calls)
     fftw         :     18.27s CPU     19.93s WALL (  318924 calls)
     interpolate  :      1.78s CPU      1.97s WALL (     149 calls)

     Parallel routines

     PWSCF        :   1m 5.55s CPU   1m15.24s WALL


   This run was terminated on:   5:33:18  24Jul2025            

=------------------------------------------------------------------------------=
   JOB DONE.
=------------------------------------------------------------------------------=
