
     Program PWSCF v.7.2 starts on 24Jul2025 at  5:29:17 

     This program is part of the open-source Quantum ESPRESSO suite
     for quantum simulation of materials; please cite
         "P. Giannozzi et al., J. Phys.:Condens. Matter 21 395502 (2009);
         "P. Giannozzi et al., J. Phys.:Condens. Matter 29 465901 (2017);
         "P. Giannozzi et al., J. Chem. Phys. 152 154105 (2020);
          URL http://www.quantum-espresso.org", 
     in publications or presentations arising from this work. More details at
     http://www.quantum-espresso.org/quote

     Parallel version (MPI & OpenMP), running on     192 processor cores
     Number of MPI processes:               192
     Threads/MPI process:                     1

     MPI processes distributed on     3 nodes
     240143 MiB available memory on the printing compute node when the environment starts

     Reading input from Ag_mp-2646971_100_bridge_0.in

     Current dimensions of program PWSCF are:
     Max number of different atomic species (ntypx) = 10
     Max number of k-points (npk) =  40000
     Max angular momentum in pseudopotentials (lmaxx) =  4
     Message from routine iosys:
     restart disabled: needed files not found

     K-points division:     npool     =       4
     R & G space division:  proc/nbgrp/npool/nimage =      48
     Subspace diagonalization in iterative solution of the eigenvalue problem:
     a serial algorithm will be used


     Parallelization info
     --------------------
     sticks:   dense  smooth     PW     G-vecs:    dense   smooth      PW
     Min          32      14      4                 8216     2396     390
     Max          33      15      6                 8255     2433     409
     Sum        1565     681    213               395265   115253   18959

     Using Slab Decomposition



     bravais-lattice index     =            0
     lattice parameter (alat)  =       6.2575  a.u.
     unit-cell volume          =    2092.4187 (a.u.)^3
     number of atoms/cell      =            7
     number of atomic types    =            2
     number of electrons       =        69.00
     number of Kohn-Sham states=           42
     kinetic-energy cutoff     =      55.0000  Ry
     charge density cutoff     =     500.0000  Ry
     scf convergence threshold =      1.0E-06
     mixing beta               =       0.3000
     number of iterations used =            8  plain     mixing
     energy convergence thresh.=      1.0E-04
     force convergence thresh. =      1.0E-03
     Exchange-correlation= PBE
                           (   1   4   3   4   0   0   0)
     nstep                     =          500


     celldm(1)=   6.257465  celldm(2)=   0.000000  celldm(3)=   0.000000
     celldm(4)=   0.000000  celldm(5)=   0.000000  celldm(6)=   0.000000

     crystal axes: (cart. coord. in units of alat)
               a(1) = (   1.000000   0.000000   0.000000 )  
               a(2) = (   0.000000   1.000000   0.000000 )  
               a(3) = (   0.000000   0.000000   8.539909 )  

     reciprocal axes: (cart. coord. in units 2 pi/alat)
               b(1) = (  1.000000 -0.000000  0.000000 )  
               b(2) = (  0.000000  1.000000  0.000000 )  
               b(3) = ( -0.000000 -0.000000  0.117097 )  


     PseudoPot. # 1 for Li read from file:
     /home/ecastro/trabajo_final/pseudos/Li.pbe-s-rrkjus_psl.1.0.0.UPF
     MD5 check sum: 9f98d2529904d60b716d33989e9bc179
     Pseudo is Ultrasoft, Zval =  3.0
     Generated using &quot;atomic&quot; code by A. Dal Corso  v.6.3MaX
     Using radial grid of 1017 points,  4 beta functions with: 
                l(1) =   0
                l(2) =   0
                l(3) =   1
                l(4) =   1
     Q(r) pseudized with 0 coefficients 


     PseudoPot. # 2 for Ag read from file:
     /home/ecastro/trabajo_final/pseudos/Ag.pbe-n-rrkjus_psl.1.0.0.UPF
     MD5 check sum: 81cdf87bacf708300839c66ee23ce017
     Pseudo is Ultrasoft + core correction, Zval = 11.0
     Generated using &quot;atomic&quot; code by A. Dal Corso  v.6.2.2
     Using radial grid of 1237 points,  6 beta functions with: 
                l(1) =   0
                l(2) =   0
                l(3) =   1
                l(4) =   1
                l(5) =   2
                l(6) =   2
     Q(r) pseudized with 0 coefficients 


     atomic species   valence    mass     pseudopotential
        Li             3.00     6.94100     Li( 1.00)
        Ag            11.00   107.86820     Ag( 1.00)

     No symmetry found



   Cartesian axes

     site n.     atom                  positions (alat units)
         1           Ag  tau(   1) = (   0.7499951   0.7500009   5.0116146  )
         2           Ag  tau(   2) = (   0.2499915   0.2500003   5.4896545  )
         3           Ag  tau(   3) = (   0.7500000   0.7500000   4.0199546  )
         4           Ag  tau(   4) = (   0.2500000   0.2500000   4.5199546  )
         5           Ag  tau(   5) = (   0.7500000   0.7500000   3.0199546  )
         6           Ag  tau(   6) = (   0.2500000   0.2500000   3.5199546  )
         7           Li  tau(   7) = (   0.2499915   0.7500003   6.0936455  )

     --------------------------------------------
     DFT-D3 Dispersion Correction (no 3-body):
     --------------------------------------------
       Reference C6 values for interpolation: 

         atom   Coordination number   C6
         Li         0.000          2326.89
         Li         0.987           170.64
         Ag         0.000           853.49
         Ag         0.968           537.23

       Values used:

         atom   Coordination number  R0_AB[au]  C6      C8
         Ag         7.599            3.147    537.23  47741.54
         Ag         6.506            3.147    537.23  47741.54
         Ag         7.528            3.147    537.23  47741.54
         Ag         7.672            3.147    537.23  47741.54
         Ag         4.234            3.147    537.23  47741.54
         Ag         7.251            3.147    537.23  47741.54
         Li         3.591            3.303    170.64  12899.87

         Molecular C6 ( Ry / a.u.^6 ) =     22982.53


     number of k points=    34  Methfessel-Paxton smearing, width (Ry)=  0.0300
                       cart. coord. in units 2pi/alat
        k(    1) = (   0.0000000   0.0000000   0.0000000), wk =   0.0312500
        k(    2) = (   0.0000000   0.1250000   0.0000000), wk =   0.0625000
        k(    3) = (   0.0000000   0.2500000   0.0000000), wk =   0.0625000
        k(    4) = (   0.0000000   0.3750000   0.0000000), wk =   0.0625000
        k(    5) = (   0.0000000  -0.5000000   0.0000000), wk =   0.0312500
        k(    6) = (   0.1250000  -0.0000000   0.0000000), wk =   0.0625000
        k(    7) = (   0.1250000   0.1250000   0.0000000), wk =   0.0625000
        k(    8) = (   0.1250000   0.2500000   0.0000000), wk =   0.0625000
        k(    9) = (   0.1250000   0.3750000   0.0000000), wk =   0.0625000
        k(   10) = (   0.1250000  -0.5000000   0.0000000), wk =   0.0625000
        k(   11) = (   0.1250000  -0.3750000   0.0000000), wk =   0.0625000
        k(   12) = (   0.1250000  -0.2500000   0.0000000), wk =   0.0625000
        k(   13) = (   0.1250000  -0.1250000   0.0000000), wk =   0.0625000
        k(   14) = (   0.2500000  -0.0000000   0.0000000), wk =   0.0625000
        k(   15) = (   0.2500000   0.1250000   0.0000000), wk =   0.0625000
        k(   16) = (   0.2500000   0.2500000   0.0000000), wk =   0.0625000
        k(   17) = (   0.2500000   0.3750000   0.0000000), wk =   0.0625000
        k(   18) = (   0.2500000  -0.5000000   0.0000000), wk =   0.0625000
        k(   19) = (   0.2500000  -0.3750000   0.0000000), wk =   0.0625000
        k(   20) = (   0.2500000  -0.2500000   0.0000000), wk =   0.0625000
        k(   21) = (   0.2500000  -0.1250000   0.0000000), wk =   0.0625000
        k(   22) = (   0.3750000  -0.0000000   0.0000000), wk =   0.0625000
        k(   23) = (   0.3750000   0.1250000   0.0000000), wk =   0.0625000
        k(   24) = (   0.3750000   0.2500000   0.0000000), wk =   0.0625000
        k(   25) = (   0.3750000   0.3750000   0.0000000), wk =   0.0625000
        k(   26) = (   0.3750000  -0.5000000   0.0000000), wk =   0.0625000
        k(   27) = (   0.3750000  -0.3750000   0.0000000), wk =   0.0625000
        k(   28) = (   0.3750000  -0.2500000   0.0000000), wk =   0.0625000
        k(   29) = (   0.3750000  -0.1250000   0.0000000), wk =   0.0625000
        k(   30) = (  -0.5000000   0.0000000   0.0000000), wk =   0.0312500
        k(   31) = (  -0.5000000   0.1250000   0.0000000), wk =   0.0625000
        k(   32) = (  -0.5000000   0.2500000   0.0000000), wk =   0.0625000
        k(   33) = (  -0.5000000   0.3750000   0.0000000), wk =   0.0625000
        k(   34) = (  -0.5000000  -0.5000000   0.0000000), wk =   0.0312500

     Dense  grid:   395265 G-vectors     FFT dimensions: (  45,  45, 384)

     Smooth grid:   115253 G-vectors     FFT dimensions: (  30,  30, 256)

     Estimated max dynamical RAM per process >      17.19 MB

     Estimated total dynamical RAM >       2.94 GB
     Cannot read rho : file not found

     Initial potential from superposition of free atoms

     starting charge      68.9930, renormalised to      69.0000

     negative rho (up, down):  4.587E-05 0.000E+00
     Message from routine qexsd_readschema :
     xml data file ./Ag_mp-2646971_100_bridge_0/Ag_mp-2646971_100_bridge_0.save/data-
     Cannot read wfcs: file not found
     Starting wfcs are   59 randomized atomic wfcs

     total cpu time spent up to now is        5.2 secs

     per-process dynamical memory:   174.4 Mb

     Self-consistent Calculation

     iteration #  1     ecut=    55.00 Ry     beta= 0.30
     Davidson diagonalization with overlap
     c_bands:  3 eigenvalues not converged
     c_bands:  1 eigenvalues not converged
     c_bands:  2 eigenvalues not converged
     c_bands:  1 eigenvalues not converged
     c_bands:  1 eigenvalues not converged
     ethr =  1.00E-05,  avg # of iterations = 18.0

     negative rho (up, down):  3.758E-05 0.000E+00

     total cpu time spent up to now is        7.1 secs

     total energy              =    -520.49587627 Ry
     estimated scf accuracy    <       0.23538176 Ry

     iteration #  2     ecut=    55.00 Ry     beta= 0.30
     Davidson diagonalization with overlap
     ethr =  3.41E-04,  avg # of iterations =  8.9

     negative rho (up, down):  6.913E-05 0.000E+00

     total cpu time spent up to now is        7.8 secs

     total energy              =    -520.44176576 Ry
     estimated scf accuracy    <       1.39110732 Ry

     iteration #  3     ecut=    55.00 Ry     beta= 0.30
     Davidson diagonalization with overlap
     ethr =  3.41E-04,  avg # of iterations =  6.8

     negative rho (up, down):  8.318E-05 0.000E+00

     total cpu time spent up to now is        8.4 secs

     total energy              =    -520.54153497 Ry
     estimated scf accuracy    <       0.27819620 Ry

     iteration #  4     ecut=    55.00 Ry     beta= 0.30
     Davidson diagonalization with overlap
     ethr =  3.41E-04,  avg # of iterations =  2.1

     negative rho (up, down):  5.703E-05 0.000E+00

     total cpu time spent up to now is        8.8 secs

     total energy              =    -520.54955313 Ry
     estimated scf accuracy    <       0.35252414 Ry

     iteration #  5     ecut=    55.00 Ry     beta= 0.30
     Davidson diagonalization with overlap
     ethr =  3.41E-04,  avg # of iterations =  1.0

     negative rho (up, down):  2.680E-05 0.000E+00

     total cpu time spent up to now is        9.1 secs

     total energy              =    -520.56192168 Ry
     estimated scf accuracy    <       0.00248816 Ry

     iteration #  6     ecut=    55.00 Ry     beta= 0.30
     Davidson diagonalization with overlap
     ethr =  3.61E-06,  avg # of iterations =  9.6

     negative rho (up, down):  1.610E-05 0.000E+00

     total cpu time spent up to now is        9.8 secs

     total energy              =    -520.56227555 Ry
     estimated scf accuracy    <       0.00062924 Ry

     iteration #  7     ecut=    55.00 Ry     beta= 0.30
     Davidson diagonalization with overlap
     ethr =  9.12E-07,  avg # of iterations =  2.1

     negative rho (up, down):  1.347E-05 0.000E+00

     total cpu time spent up to now is       10.2 secs

     total energy              =    -520.56234379 Ry
     estimated scf accuracy    <       0.00022515 Ry

     iteration #  8     ecut=    55.00 Ry     beta= 0.30
     Davidson diagonalization with overlap
     ethr =  3.26E-07,  avg # of iterations =  1.5

     negative rho (up, down):  2.021E-05 0.000E+00

     total cpu time spent up to now is       10.5 secs

     total energy              =    -520.56237738 Ry
     estimated scf accuracy    <       0.00004322 Ry

     iteration #  9     ecut=    55.00 Ry     beta= 0.30
     Davidson diagonalization with overlap
     ethr =  6.26E-08,  avg # of iterations =  3.0

     negative rho (up, down):  1.648E-05 0.000E+00

     total cpu time spent up to now is       11.0 secs

     total energy              =    -520.56238068 Ry
     estimated scf accuracy    <       0.00001604 Ry

     iteration # 10     ecut=    55.00 Ry     beta= 0.30
     Davidson diagonalization with overlap
     ethr =  2.32E-08,  avg # of iterations =  2.1

     negative rho (up, down):  1.485E-05 0.000E+00

     total cpu time spent up to now is       11.4 secs

     total energy              =    -520.56238282 Ry
     estimated scf accuracy    <       0.00000216 Ry

     iteration # 11     ecut=    55.00 Ry     beta= 0.30
     Davidson diagonalization with overlap
     ethr =  3.13E-09,  avg # of iterations =  4.3

     negative rho (up, down):  1.258E-05 0.000E+00

     total cpu time spent up to now is       11.8 secs

     End of self-consistent calculation

          k = 0.0000 0.0000 0.0000 ( 14575 PWs)   bands (ev):

   -45.1051  -4.9395  -4.0195  -3.7828  -3.6967  -3.3840  -3.2890  -2.9767
    -2.8200  -2.5862  -2.5571  -2.5478  -2.5195  -2.4246  -2.4013  -2.2293
    -2.1916  -2.1720  -2.1386  -1.7596  -1.7324  -1.7159  -1.7005  -1.5310
    -1.4220  -1.2875  -1.2254  -1.2074  -1.1841  -0.8930  -0.8716  -0.7835
    -0.7784  -0.6802   0.2956   1.6606   2.8935   4.5511   5.4057   5.8560
     6.7276   6.9209

          k = 0.0000 0.1250 0.0000 ( 14507 PWs)   bands (ev):

   -45.1046  -4.7098  -3.8792  -3.6782  -3.5963  -3.3520  -3.1987  -3.0367
    -2.8222  -2.6897  -2.6533  -2.6163  -2.5005  -2.3863  -2.3669  -2.3217
    -2.2252  -1.9793  -1.9549  -1.9319  -1.7073  -1.6474  -1.5187  -1.4723
    -1.4516  -1.4058  -1.2943  -1.2497  -0.9892  -0.9809  -0.9343  -0.8289
    -0.7136  -0.6676   0.4780   1.8723   3.1469   4.8040   5.6349   6.0748
     6.9585   7.1618

          k = 0.0000 0.2500 0.0000 ( 14429 PWs)   bands (ev):

   -45.1036  -4.1153  -3.7059  -3.5150  -3.4081  -3.3020  -3.1877  -2.9310
    -2.8955  -2.8915  -2.7632  -2.5685  -2.4835  -2.3829  -2.2572  -2.1310
    -2.0424  -1.9689  -1.8298  -1.7025  -1.6345  -1.5742  -1.5223  -1.4885
    -1.4454  -1.3785  -1.3720  -1.1991  -1.1824  -0.9603  -0.8864  -0.6213
    -0.6041  -0.5569   1.0073   2.4540   3.8133   4.9832   5.2916   5.9755
     6.2811   6.7478

          k = 0.0000 0.3750 0.0000 ( 14361 PWs)   bands (ev):

   -45.1027  -3.7963  -3.7176  -3.4932  -3.3128  -3.1197  -3.0828  -3.0174
    -2.9134  -2.7656  -2.7078  -2.6395  -2.3942  -2.3005  -2.1527  -2.0425
    -2.0090  -1.7997  -1.7480  -1.6982  -1.5922  -1.5254  -1.4843  -1.4593
    -1.3520  -1.3238  -1.2787  -0.8784  -0.8604  -0.8318  -0.6068  -0.5570
    -0.5316   0.4010   1.7982   2.4921   3.0335   3.3302   4.5314   4.9096
     6.5947   6.9902

          k = 0.0000-0.5000 0.0000 ( 14350 PWs)   bands (ev):

   -45.1024  -3.8421  -3.7743  -3.4008  -3.3106  -3.1877  -3.1566  -2.8313
    -2.7433  -2.7166  -2.6568  -2.6281  -2.4909  -2.2090  -2.1041  -2.0487
    -2.0481  -1.8488  -1.8288  -1.6122  -1.5443  -1.4969  -1.4304  -1.3989
    -1.3816  -1.3204  -1.2122  -0.8550  -0.8170  -0.5167  -0.5157   0.3912
     0.4458   1.0380   1.0520   1.8905   2.0496   2.5202   4.5173   4.8513
     5.9686   7.1982

          k = 0.1250-0.0000 0.0000 ( 14507 PWs)   bands (ev):

   -45.1046  -4.7100  -3.8767  -3.6906  -3.5886  -3.3593  -3.2192  -3.0759
    -2.8016  -2.7029  -2.6533  -2.5865  -2.4828  -2.3945  -2.3853  -2.2700
    -2.1904  -2.0139  -1.9563  -1.9367  -1.7020  -1.6462  -1.5014  -1.4998
    -1.4508  -1.4136  -1.2811  -1.2367  -1.0070  -0.9813  -0.9279  -0.8251
    -0.7164  -0.6679   0.4913   1.8784   3.1381   4.8132   5.6236   6.0768
     6.9429   7.1716

          k = 0.1250 0.1250 0.0000 ( 14465 PWs)   bands (ev):

   -45.1042  -4.4897  -3.7235  -3.5705  -3.5061  -3.2434  -3.1928  -3.0146
    -2.8639  -2.7513  -2.7087  -2.6632  -2.5938  -2.4983  -2.3149  -2.2782
    -2.2053  -1.9922  -1.9426  -1.8890  -1.6420  -1.5917  -1.5765  -1.4934
    -1.4165  -1.3726  -1.2956  -1.1458  -1.1257  -1.0132  -0.8304  -0.7616
    -0.7496  -0.6470   0.7272   2.1044   3.3992   5.0647   5.8529   6.2945
     7.1707   7.4113

          k = 0.1250 0.2500 0.0000 ( 14449 PWs)   bands (ev):

   -45.1034  -3.9380  -3.5425  -3.3846  -3.2977  -3.2437  -3.0993  -2.9938
    -2.9288  -2.8152  -2.7579  -2.6709  -2.6268  -2.4956  -2.2719  -2.1973
    -2.1457  -1.9829  -1.8949  -1.7057  -1.6307  -1.5388  -1.5254  -1.4826
    -1.4272  -1.2748  -1.2472  -1.2138  -1.1767  -0.9645  -0.8813  -0.7794
    -0.6968  -0.0668   1.3405   2.7241   4.0881   5.3048   5.5872   6.2405
     6.4905   6.9557

          k = 0.1250 0.3750 0.0000 ( 14401 PWs)   bands (ev):

   -45.1025  -3.6518  -3.5886  -3.4040  -3.2183  -3.1310  -3.0919  -3.0219
    -2.9828  -2.8341  -2.7154  -2.6236  -2.4189  -2.3771  -2.2281  -2.0348
    -1.9930  -1.8370  -1.7853  -1.6357  -1.6137  -1.5173  -1.4726  -1.4136
    -1.3446  -1.3064  -1.2189  -1.1070  -0.9709  -0.8255  -0.7450  -0.6909
    -0.1401   0.9322   2.1850   2.7969   3.4007   3.7043   4.7315   5.1661
     6.6961   7.1551

          k = 0.1250-0.5000 0.0000 ( 14406 PWs)   bands (ev):

   -45.1022  -3.7038  -3.6443  -3.3387  -3.2643  -3.1821  -3.1164  -3.0052
    -2.9150  -2.7950  -2.6482  -2.5652  -2.5335  -2.2380  -2.0794  -2.0617
    -1.9762  -1.8408  -1.6963  -1.6410  -1.5934  -1.4762  -1.4106  -1.3760
    -1.2900  -1.2741  -1.1270  -1.0054  -0.9846  -0.8476  -0.8238   0.6468
     0.6817   1.4071   1.4440   2.3541   2.4469   3.0377   4.7328   5.0089
     6.1477   7.3057

          k = 0.1250-0.3750 0.0000 ( 14401 PWs)   bands (ev):

   -45.1025  -3.6518  -3.5886  -3.4040  -3.2183  -3.1310  -3.0919  -3.0219
    -2.9828  -2.8341  -2.7154  -2.6236  -2.4189  -2.3771  -2.2281  -2.0348
    -1.9930  -1.8370  -1.7853  -1.6357  -1.6137  -1.5173  -1.4726  -1.4136
    -1.3446  -1.3064  -1.2189  -1.1070  -0.9709  -0.8255  -0.7450  -0.6909
    -0.1401   0.9322   2.1850   2.7969   3.4007   3.7043   4.7315   5.1661
     6.6960   7.1552

          k = 0.1250-0.2500 0.0000 ( 14449 PWs)   bands (ev):

   -45.1034  -3.9380  -3.5425  -3.3846  -3.2977  -3.2437  -3.0993  -2.9938
    -2.9288  -2.8152  -2.7579  -2.6709  -2.6268  -2.4956  -2.2719  -2.1973
    -2.1457  -1.9829  -1.8949  -1.7057  -1.6307  -1.5388  -1.5254  -1.4826
    -1.4272  -1.2748  -1.2472  -1.2138  -1.1767  -0.9645  -0.8813  -0.7794
    -0.6968  -0.0668   1.3405   2.7241   4.0881   5.3048   5.5872   6.2405
     6.4905   6.9556

          k = 0.1250-0.1250 0.0000 ( 14465 PWs)   bands (ev):

   -45.1042  -4.4897  -3.7235  -3.5705  -3.5061  -3.2434  -3.1928  -3.0146
    -2.8639  -2.7513  -2.7087  -2.6632  -2.5938  -2.4983  -2.3149  -2.2782
    -2.2053  -1.9922  -1.9426  -1.8890  -1.6420  -1.5917  -1.5765  -1.4934
    -1.4165  -1.3726  -1.2956  -1.1458  -1.1257  -1.0132  -0.8304  -0.7616
    -0.7496  -0.6470   0.7272   2.1044   3.3992   5.0647   5.8529   6.2945
     7.1708   7.4113

          k = 0.2500-0.0000 0.0000 ( 14429 PWs)   bands (ev):

   -45.1037  -4.1117  -3.6964  -3.5129  -3.4122  -3.3463  -3.2618  -2.9452
    -2.8936  -2.8899  -2.7475  -2.5772  -2.4904  -2.3255  -2.2416  -2.0678
    -2.0678  -1.9803  -1.7940  -1.7065  -1.6176  -1.5651  -1.5218  -1.4968
    -1.4304  -1.3996  -1.3741  -1.1981  -1.1807  -0.9849  -0.8882  -0.6209
    -0.6066  -0.5272   1.0688   2.4803   3.7860   4.9803   5.4873   5.8621
     6.2267   6.6997

          k = 0.2500 0.1250 0.0000 ( 14449 PWs)   bands (ev):

   -45.1034  -3.9345  -3.5319  -3.3829  -3.2990  -3.2603  -3.1678  -2.9995
    -2.9347  -2.8126  -2.7483  -2.6706  -2.6322  -2.4986  -2.2773  -2.1660
    -2.0770  -2.0109  -1.8865  -1.7023  -1.6290  -1.5447  -1.5181  -1.4743
    -1.4239  -1.2618  -1.2540  -1.2153  -1.1765  -0.9807  -0.8840  -0.7794
    -0.6947  -0.0460   1.3876   2.7376   4.0701   5.3090   5.7463   6.0994
     6.4855   6.9187

          k = 0.2500 0.2500 0.0000 ( 14420 PWs)   bands (ev):

   -45.1026  -3.6002  -3.3029  -3.2457  -3.2334  -3.0242  -2.9840  -2.9383
    -2.8750  -2.8551  -2.8237  -2.7626  -2.7072  -2.6953  -2.3100  -2.2501
    -2.1497  -1.9587  -1.9523  -1.6435  -1.6137  -1.4307  -1.4184  -1.4161
    -1.3943  -1.2991  -1.2707  -1.2121  -1.0715  -1.0447  -0.9488  -0.6833
    -0.3502   0.7920   2.1222   3.4353   4.8026   5.7589   6.2562   6.4816
     6.8651   6.9360

          k = 0.2500 0.3750 0.0000 ( 14394 PWs)   bands (ev):

   -45.1018  -3.4950  -3.3667  -3.3385  -3.2416  -3.1843  -3.1019  -2.9826
    -2.9505  -2.8706  -2.7096  -2.6048  -2.5158  -2.4362  -2.2191  -2.1110
    -1.9801  -1.8955  -1.7346  -1.6528  -1.4894  -1.4737  -1.4445  -1.3595
    -1.3272  -1.2871  -1.2007  -1.1544  -1.0820  -1.0149  -0.7274  -0.3486
     0.6741   1.8732   3.0420   3.5197   4.2961   4.5869   5.2867   5.9031
     6.9136   7.6329

          k = 0.2500-0.5000 0.0000 ( 14414 PWs)   bands (ev):

   -45.1015  -3.4898  -3.4096  -3.3831  -3.2918  -3.2702  -3.1647  -3.0569
    -2.9808  -2.9119  -2.7159  -2.6195  -2.4191  -2.2675  -2.0072  -1.9989
    -1.8979  -1.8218  -1.7056  -1.5401  -1.5070  -1.4838  -1.4529  -1.3343
    -1.3292  -1.2615  -1.1651  -1.1305  -1.0474  -0.9374  -0.9034   1.2595
     1.2874   2.1582   2.3019   3.1467   3.5702   4.2392   5.1973   5.6145
     6.6885   7.6608

          k = 0.2500-0.3750 0.0000 ( 14394 PWs)   bands (ev):

   -45.1018  -3.4950  -3.3667  -3.3385  -3.2416  -3.1843  -3.1020  -2.9826
    -2.9505  -2.8706  -2.7096  -2.6048  -2.5158  -2.4362  -2.2191  -2.1110
    -1.9801  -1.8955  -1.7346  -1.6528  -1.4894  -1.4737  -1.4445  -1.3595
    -1.3272  -1.2871  -1.2007  -1.1544  -1.0820  -1.0149  -0.7274  -0.3486
     0.6741   1.8732   3.0420   3.5197   4.2961   4.5869   5.2867   5.9031
     6.9136   7.6330

          k = 0.2500-0.2500 0.0000 ( 14420 PWs)   bands (ev):

   -45.1026  -3.6002  -3.3028  -3.2457  -3.2334  -3.0242  -2.9840  -2.9383
    -2.8750  -2.8551  -2.8237  -2.7626  -2.7072  -2.6953  -2.3100  -2.2501
    -2.1497  -1.9587  -1.9523  -1.6435  -1.6137  -1.4307  -1.4184  -1.4161
    -1.3943  -1.2991  -1.2707  -1.2121  -1.0715  -1.0447  -0.9488  -0.6833
    -0.3502   0.7920   2.1222   3.4353   4.8026   5.7589   6.2562   6.4817
     6.8651   6.9359

          k = 0.2500-0.1250 0.0000 ( 14449 PWs)   bands (ev):

   -45.1034  -3.9345  -3.5319  -3.3829  -3.2990  -3.2603  -3.1678  -2.9995
    -2.9347  -2.8126  -2.7483  -2.6706  -2.6322  -2.4986  -2.2773  -2.1660
    -2.0770  -2.0109  -1.8865  -1.7023  -1.6290  -1.5447  -1.5181  -1.4743
    -1.4239  -1.2618  -1.2540  -1.2153  -1.1765  -0.9807  -0.8840  -0.7794
    -0.6947  -0.0460   1.3876   2.7376   4.0701   5.3090   5.7463   6.0994
     6.4855   6.9187

          k = 0.3750-0.0000 0.0000 ( 14361 PWs)   bands (ev):

   -45.1028  -3.7815  -3.7256  -3.4837  -3.3330  -3.1332  -3.1212  -3.0802
    -2.9087  -2.7650  -2.7246  -2.6352  -2.3692  -2.2405  -2.1556  -2.0305
    -2.0279  -1.7853  -1.7250  -1.6932  -1.5823  -1.5291  -1.4986  -1.4656
    -1.3585  -1.3501  -1.2690  -0.9010  -0.8301  -0.8296  -0.5849  -0.5615
    -0.5309   0.4559   1.9462   2.4467   3.2170   3.6147   4.2180   4.9114
     5.7854   7.0696

          k = 0.3750 0.1250 0.0000 ( 14401 PWs)   bands (ev):

   -45.1026  -3.6361  -3.5950  -3.3974  -3.2379  -3.1357  -3.0927  -3.0529
    -2.9999  -2.8387  -2.7181  -2.6291  -2.4218  -2.3725  -2.2452  -2.0546
    -1.9674  -1.8291  -1.7409  -1.6325  -1.6153  -1.5139  -1.4698  -1.4123
    -1.3528  -1.3122  -1.2262  -1.1129  -0.9729  -0.8203  -0.7425  -0.6799
    -0.1143   0.9893   2.3374   2.7537   3.5551   3.8855   4.4889   5.1684
     5.9740   7.2281

          k = 0.3750 0.2500 0.0000 ( 14394 PWs)   bands (ev):

   -45.1018  -3.4956  -3.3596  -3.3372  -3.2460  -3.1843  -3.0986  -2.9783
    -2.9470  -2.8661  -2.7145  -2.5976  -2.5357  -2.4372  -2.2485  -2.1381
    -2.0199  -1.8934  -1.6804  -1.6446  -1.4876  -1.4723  -1.4380  -1.3586
    -1.3270  -1.2940  -1.2116  -1.1512  -1.0798  -1.0151  -0.7256  -0.3314
     0.6956   1.9291   3.1766   3.4653   4.3202   4.6354   5.2127   5.9176
     6.4991   7.4976

          k = 0.3750 0.3750 0.0000 ( 14360 PWs)   bands (ev):

   -45.1010  -3.6390  -3.5318  -3.3221  -3.2263  -3.1775  -3.1254  -3.0793
    -2.9156  -2.8639  -2.7899  -2.6468  -2.4717  -2.3487  -2.2303  -2.0609
    -1.9093  -1.7105  -1.6860  -1.4862  -1.4017  -1.3132  -1.3025  -1.2892
    -1.2690  -1.2530  -1.1861  -1.1816  -1.0423  -1.0032  -0.6654   0.5767
     1.7932   3.0173   3.6897   4.2037   5.0088   5.2428   5.6993   6.2209
     6.8060   6.8940

          k = 0.3750-0.5000 0.0000 ( 14356 PWs)   bands (ev):

   -45.1006  -3.6922  -3.6252  -3.3100  -3.2714  -3.2046  -3.1380  -3.1034
    -3.0207  -2.9643  -2.7764  -2.7183  -2.4193  -2.3050  -2.2570  -1.7971
    -1.7672  -1.6951  -1.4585  -1.4523  -1.3932  -1.3783  -1.3155  -1.2502
    -1.2128  -1.2104  -1.1841  -1.1430  -1.0171  -0.8112  -0.7790   2.1217
     2.1301   3.1551   3.3814   4.1341   4.8120   5.6055   5.6276   6.6690
     7.0609   7.2130

          k = 0.3750-0.3750 0.0000 ( 14360 PWs)   bands (ev):

   -45.1010  -3.6390  -3.5318  -3.3221  -3.2263  -3.1775  -3.1254  -3.0793
    -2.9156  -2.8639  -2.7899  -2.6468  -2.4717  -2.3487  -2.2303  -2.0609
    -1.9093  -1.7105  -1.6860  -1.4862  -1.4017  -1.3132  -1.3025  -1.2892
    -1.2690  -1.2530  -1.1861  -1.1816  -1.0423  -1.0032  -0.6654   0.5767
     1.7932   3.0173   3.6897   4.2037   5.0088   5.2428   5.6993   6.2209
     6.8060   6.8940

          k = 0.3750-0.2500 0.0000 ( 14394 PWs)   bands (ev):

   -45.1018  -3.4956  -3.3596  -3.3372  -3.2460  -3.1843  -3.0986  -2.9783
    -2.9470  -2.8661  -2.7145  -2.5976  -2.5357  -2.4372  -2.2485  -2.1381
    -2.0199  -1.8934  -1.6804  -1.6446  -1.4876  -1.4723  -1.4380  -1.3586
    -1.3270  -1.2940  -1.2116  -1.1512  -1.0798  -1.0151  -0.7256  -0.3314
     0.6956   1.9291   3.1766   3.4653   4.3202   4.6354   5.2127   5.9176
     6.4991   7.4976

          k = 0.3750-0.1250 0.0000 ( 14401 PWs)   bands (ev):

   -45.1026  -3.6361  -3.5950  -3.3974  -3.2379  -3.1357  -3.0927  -3.0529
    -2.9999  -2.8387  -2.7181  -2.6291  -2.4218  -2.3725  -2.2452  -2.0546
    -1.9674  -1.8291  -1.7409  -1.6325  -1.6153  -1.5139  -1.4698  -1.4123
    -1.3528  -1.3122  -1.2262  -1.1129  -0.9729  -0.8203  -0.7425  -0.6799
    -0.1143   0.9893   2.3374   2.7537   3.5551   3.8855   4.4889   5.1684
     5.9740   7.2281

          k =-0.5000 0.0000 0.0000 ( 14350 PWs)   bands (ev):

   -45.1026  -3.8276  -3.7876  -3.3827  -3.3446  -3.2012  -3.1538  -2.9161
    -2.7620  -2.7119  -2.6490  -2.6158  -2.4813  -2.2024  -2.0653  -2.0267
    -2.0222  -1.8634  -1.8259  -1.5965  -1.5563  -1.4905  -1.4821  -1.3978
    -1.3806  -1.3179  -1.2126  -0.8815  -0.8141  -0.5214  -0.5144   0.4193
     0.4512   1.0392   1.0884   1.7816   2.3677   3.1844   4.1156   4.6098
     5.2631   7.3953

          k =-0.5000 0.1250 0.0000 ( 14406 PWs)   bands (ev):

   -45.1023  -3.6885  -3.6562  -3.3226  -3.2844  -3.1942  -3.1101  -3.0303
    -2.9136  -2.7779  -2.6901  -2.5756  -2.5214  -2.2688  -2.1036  -2.0242
    -1.9745  -1.8102  -1.6898  -1.6230  -1.6159  -1.4666  -1.4092  -1.3795
    -1.3317  -1.2726  -1.1232  -1.0120  -0.9788  -0.8472  -0.8233   0.6730
     0.6935   1.4315   1.4868   2.3154   2.7768   3.4763   4.3048   4.8822
     5.4615   7.5110

          k =-0.5000 0.2500 0.0000 ( 14414 PWs)   bands (ev):

   -45.1016  -3.4938  -3.4064  -3.3677  -3.2989  -3.2778  -3.1612  -3.0307
    -2.9989  -2.9002  -2.7195  -2.5939  -2.4216  -2.3239  -2.0831  -2.0061
    -1.8914  -1.8297  -1.6973  -1.5292  -1.5010  -1.4744  -1.4338  -1.3336
    -1.3282  -1.2681  -1.1732  -1.1207  -1.0475  -0.9382  -0.8982   1.2740
     1.3176   2.2771   2.3023   3.3767   3.5289   4.3993   4.8404   5.7099
     6.0586   7.8356

          k =-0.5000 0.3750 0.0000 ( 14356 PWs)   bands (ev):

   -45.1007  -3.6928  -3.6247  -3.3111  -3.2708  -3.1851  -3.1650  -3.1040
    -3.0188  -2.9364  -2.7871  -2.6859  -2.4638  -2.3185  -2.2448  -1.8402
    -1.7437  -1.6932  -1.4873  -1.4507  -1.3947  -1.3526  -1.3144  -1.2513
    -1.2148  -1.2090  -1.1873  -1.1365  -1.0119  -0.8256  -0.7645   2.0925
     2.1825   3.2400   3.4241   4.2479   4.5896   5.5044   5.6317   6.8844
     6.9596   7.1953

          k =-0.5000-0.5000 0.0000 ( 14372 PWs)   bands (ev):

   -45.1004  -3.7771  -3.7166  -3.2616  -3.2538  -3.2472  -3.1993  -3.1359
    -3.1152  -2.8661  -2.8331  -2.8130  -2.4726  -2.3489  -2.3070  -1.6793
    -1.5980  -1.5478  -1.3943  -1.3665  -1.2879  -1.2862  -1.2678  -1.2636
    -1.2196  -1.1959  -1.1740  -1.1159  -0.8460  -0.7925  -0.7637   2.6890
     2.7819   4.1312   4.2119   4.3422   5.4274   6.0405   6.0551   6.2322
     6.2749   6.3765

     the Fermi energy is     2.1860 ev

!    total energy              =    -520.56238330 Ry
     estimated scf accuracy    <       0.00000011 Ry
     smearing contrib. (-TS)   =      -0.00210457 Ry
     internal energy E=F+TS    =    -520.56027873 Ry

     The total energy is F=E-TS. E is the sum of the following terms:
     one-electron contribution =   -5467.11898855 Ry
     hartree contribution      =    2780.72207208 Ry
     xc contribution           =    -137.43144637 Ry
     ewald contribution        =    2303.43657288 Ry
     DFT-D3 Dispersion         =      -0.16848876 Ry

     convergence has been achieved in  11 iterations

     negative rho (up, down):  1.258E-05 0.000E+00

     Forces acting on atoms (cartesian axes, Ry/au):

     atom    1 type  2   force =     0.00000125    0.00000063   -0.00327996
     atom    2 type  2   force =    -0.00000011   -0.00000166    0.00237663
     atom    3 type  2   force =     0.00000094   -0.00000124    0.00193532
     atom    4 type  2   force =    -0.00000074    0.00000127   -0.00584769
     atom    5 type  2   force =     0.00000011    0.00000036    0.00779591
     atom    6 type  2   force =    -0.00000015   -0.00000121   -0.00296264
     atom    7 type  1   force =    -0.00000131    0.00000185   -0.00001756
     The non-local contrib.  to forces
     atom    1 type  2   force =     0.00000175    0.00000126    0.00524711
     atom    2 type  2   force =    -0.00000098    0.00000099    0.04601957
     atom    3 type  2   force =    -0.00000058   -0.00000011    0.00188667
     atom    4 type  2   force =    -0.00000189    0.00000048   -0.00199051
     atom    5 type  2   force =    -0.00000165    0.00000043   -0.14217525
     atom    6 type  2   force =     0.00000032   -0.00000149    0.00073806
     atom    7 type  1   force =     0.00000153   -0.00001114    0.05130315
     The ionic contribution  to forces
     atom    1 type  2   force =     0.00000911   -0.00002023   68.46789775
     atom    2 type  2   force =     0.00004108    0.00000922  113.25841889
     atom    3 type  2   force =     0.00000486   -0.00000097  -30.99244891
     atom    4 type  2   force =    -0.00005540    0.00001204   18.29168194
     atom    5 type  2   force =     0.00000001   -0.00000000 -124.72358867
     atom    6 type  2   force =    -0.00000018    0.00000004  -80.43212939
     atom    7 type  1   force =     0.00000052   -0.00000009   36.13016839
     The local contribution  to forces
     atom    1 type  2   force =    -0.00000941    0.00002176  -68.47482581
     atom    2 type  2   force =    -0.00004005   -0.00000943 -113.29941113
     atom    3 type  2   force =    -0.00000644    0.00000157   30.99058970
     atom    4 type  2   force =     0.00005602   -0.00001368  -18.29511419
     atom    5 type  2   force =    -0.00000192   -0.00000057  124.86605535
     atom    6 type  2   force =     0.00000108   -0.00000116   80.42417074
     atom    7 type  1   force =    -0.00000433    0.00001370  -36.17886700
     The core correction contribution to forces
     atom    1 type  2   force =    -0.00000004    0.00000007   -0.00007272
     atom    2 type  2   force =    -0.00000005   -0.00000001   -0.00021428
     atom    3 type  2   force =    -0.00000007    0.00000004    0.00029503
     atom    4 type  2   force =     0.00000018   -0.00000010    0.00067734
     atom    5 type  2   force =    -0.00000006   -0.00000004    0.00548408
     atom    6 type  2   force =     0.00000006   -0.00000005    0.00086697
     atom    7 type  1   force =     0.00000000    0.00000000    0.00000000
     The Hubbard contrib.    to forces
     atom    1 type  2   force =     0.00000000    0.00000000    0.00000000
     atom    2 type  2   force =     0.00000000    0.00000000    0.00000000
     atom    3 type  2   force =     0.00000000    0.00000000    0.00000000
     atom    4 type  2   force =     0.00000000    0.00000000    0.00000000
     atom    5 type  2   force =     0.00000000    0.00000000    0.00000000
     atom    6 type  2   force =     0.00000000    0.00000000    0.00000000
     atom    7 type  1   force =     0.00000000    0.00000000    0.00000000
     The SCF correction term to forces
     atom    1 type  2   force =    -0.00000083   -0.00000193    0.00060204
     atom    2 type  2   force =    -0.00000072   -0.00000207   -0.00064652
     atom    3 type  2   force =     0.00000244   -0.00000143   -0.00052927
     atom    4 type  2   force =    -0.00000048    0.00000289   -0.00037215
     atom    5 type  2   force =     0.00000303    0.00000089    0.00003831
     atom    6 type  2   force =    -0.00000215    0.00000180    0.00005061
     atom    7 type  1   force =     0.00000025   -0.00000028    0.00004534

     DFT-D3 dispersion contribution to forces:
     atom    1 type  2   force =    -0.00000005    0.00000003   -0.00214958
     atom    2 type  2   force =    -0.00000010   -0.00000001   -0.00181115
     atom    3 type  2   force =     0.00000002   -0.00000000    0.00212084
     atom    4 type  2   force =     0.00000012   -0.00000002   -0.00075137
     atom    5 type  2   force =    -0.00000000    0.00000000    0.00196084
     atom    6 type  2   force =     0.00000000   -0.00000000    0.00331912
     atom    7 type  1   force =     0.00000001   -0.00000000   -0.00268870

     Total force =     0.011131     Total SCF correction =     0.001098


     Computing stress (Cartesian axis) and pressure


     negative rho (up, down):  1.258E-05 0.000E+00
          total   stress  (Ry/bohr**3)                   (kbar)     P=      -20.13
  -0.00018768  -0.00000000   0.00000000          -27.61       -0.00        0.00
  -0.00000000  -0.00014593  -0.00000000           -0.00      -21.47       -0.00
   0.00000000  -0.00000000  -0.00007702            0.00       -0.00      -11.33


     BFGS Geometry Optimization
     Energy error            =      0.0E+00 Ry
     Gradient error          =      7.8E-03 Ry/Bohr

     number of scf cycles    =   1
     number of bfgs steps    =   0

     energy             new  =    -520.5623833004 Ry

     new trust radius        =       0.0077959150 bohr
     new conv_thr            =       0.0000010000 Ry


ATOMIC_POSITIONS (angstrom)
Ag            2.4834654022        2.4834843958       16.5932638166
Ag            0.8277988388        0.8278271370       18.1791946690
Ag            2.4834814991        2.4834803438       13.3123321282
Ag            0.8278266082        0.8278276724       14.9638675382
Ag            2.4834810606        2.4834811952       10.0041254206
Ag            0.8278269219        0.8278263615       11.6540862404
Li            0.8277982039        2.4834829929       20.1779277174



     Writing config-only to output data dir ./Ag_mp-2646971_100_bridge_0/Ag_mp-2646971_100_bridge_0.save/
     NEW-OLD atomic charge density approx. for the potential

     negative rho (up, down):  1.276E-05 0.000E+00

     total cpu time spent up to now is       13.3 secs

     per-process dynamical memory:   183.7 Mb

     Self-consistent Calculation

     iteration #  1     ecut=    55.00 Ry     beta= 0.30
     Davidson diagonalization with overlap
     ethr =  1.00E-06,  avg # of iterations =  3.1

     Threshold (ethr) on eigenvalues was too large:
     Diagonalizing with lowered threshold

     Davidson diagonalization with overlap
     ethr =  2.04E-09,  avg # of iterations =  8.1

     negative rho (up, down):  1.272E-05 0.000E+00

     total cpu time spent up to now is       15.2 secs

     total energy              =    -520.56250170 Ry
     estimated scf accuracy    <       0.00000334 Ry

     iteration #  2     ecut=    55.00 Ry     beta= 0.30
     Davidson diagonalization with overlap
     ethr =  4.83E-09,  avg # of iterations =  2.1

     negative rho (up, down):  1.271E-05 0.000E+00

     total cpu time spent up to now is       15.6 secs

     total energy              =    -520.56250002 Ry
     estimated scf accuracy    <       0.00004925 Ry

     iteration #  3     ecut=    55.00 Ry     beta= 0.30
     Davidson diagonalization with overlap
     ethr =  4.83E-09,  avg # of iterations =  1.4

     negative rho (up, down):  1.270E-05 0.000E+00

     total cpu time spent up to now is       16.0 secs

     total energy              =    -520.56250222 Ry
     estimated scf accuracy    <       0.00000674 Ry

     iteration #  4     ecut=    55.00 Ry     beta= 0.30
     Davidson diagonalization with overlap
     ethr =  4.83E-09,  avg # of iterations =  1.0

     negative rho (up, down):  1.267E-05 0.000E+00

     total cpu time spent up to now is       16.3 secs

     End of self-consistent calculation

          k = 0.0000 0.0000 0.0000 ( 14575 PWs)   bands (ev):

   -45.1044  -4.9408  -4.0193  -3.7827  -3.6980  -3.3843  -3.2913  -2.9770
    -2.8243  -2.5906  -2.5570  -2.5480  -2.5189  -2.4254  -2.4021  -2.2295
    -2.1918  -2.1732  -2.1397  -1.7643  -1.7343  -1.7158  -1.7021  -1.5302
    -1.4215  -1.2886  -1.2276  -1.2082  -1.1848  -0.8931  -0.8701  -0.7845
    -0.7793  -0.6795   0.2965   1.6610   2.8969   4.5532   5.4081   5.8620
     6.7315   6.9255

          k = 0.0000 0.1250 0.0000 ( 14507 PWs)   bands (ev):

   -45.1039  -4.7111  -3.8789  -3.6784  -3.5976  -3.3531  -3.2003  -3.0349
    -2.8283  -2.6892  -2.6539  -2.6194  -2.5014  -2.3868  -2.3671  -2.3207
    -2.2273  -1.9818  -1.9580  -1.9334  -1.7078  -1.6480  -1.5185  -1.4732
    -1.4540  -1.4064  -1.2947  -1.2520  -0.9904  -0.9801  -0.9342  -0.8282
    -0.7139  -0.6674   0.4790   1.8729   3.1500   4.8060   5.6372   6.0810
     6.9625   7.1663

          k = 0.0000 0.2500 0.0000 ( 14429 PWs)   bands (ev):

   -45.1029  -4.1160  -3.7053  -3.5173  -3.4115  -3.3018  -3.1842  -2.9296
    -2.9022  -2.8933  -2.7645  -2.5687  -2.4840  -2.3824  -2.2589  -2.1315
    -2.0460  -1.9732  -1.8304  -1.7044  -1.6371  -1.5748  -1.5219  -1.4884
    -1.4474  -1.3800  -1.3724  -1.1968  -1.1835  -0.9598  -0.8867  -0.6221
    -0.6031  -0.5581   1.0083   2.4550   3.8158   4.9828   5.2926   5.9757
     6.2831   6.7536

          k = 0.0000 0.3750 0.0000 ( 14361 PWs)   bands (ev):

   -45.1020  -3.7944  -3.7193  -3.4957  -3.3145  -3.1185  -3.0845  -3.0149
    -2.9145  -2.7724  -2.7079  -2.6400  -2.3950  -2.2993  -2.1559  -2.0457
    -2.0149  -1.8022  -1.7473  -1.6989  -1.5923  -1.5270  -1.4841  -1.4610
    -1.3499  -1.3242  -1.2789  -0.8778  -0.8600  -0.8322  -0.6078  -0.5573
    -0.5310   0.3982   1.7986   2.4918   3.0339   3.3297   4.5316   4.9123
     6.5950   6.9910

          k = 0.0000-0.5000 0.0000 ( 14350 PWs)   bands (ev):

   -45.1017  -3.8406  -3.7765  -3.4015  -3.3121  -3.1868  -3.1580  -2.8302
    -2.7434  -2.7171  -2.6625  -2.6272  -2.4950  -2.2113  -2.1042  -2.0553
    -2.0510  -1.8485  -1.8296  -1.6112  -1.5457  -1.4963  -1.4298  -1.3978
    -1.3836  -1.3208  -1.2140  -0.8546  -0.8170  -0.5161  -0.5158   0.3917
     0.4446   1.0378   1.0515   1.8882   2.0479   2.5182   4.5228   4.8529
     5.9683   7.1983

          k = 0.1250-0.0000 0.0000 ( 14507 PWs)   bands (ev):

   -45.1039  -4.7112  -3.8765  -3.6905  -3.5900  -3.3599  -3.2211  -3.0754
    -2.8074  -2.7022  -2.6536  -2.5892  -2.4835  -2.3951  -2.3858  -2.2702
    -2.1909  -2.0165  -1.9593  -1.9382  -1.7024  -1.6467  -1.5027  -1.4995
    -1.4533  -1.4143  -1.2818  -1.2383  -1.0069  -0.9818  -0.9280  -0.8244
    -0.7167  -0.6676   0.4924   1.8790   3.1412   4.8152   5.6259   6.0831
     6.9469   7.1759

          k = 0.1250 0.1250 0.0000 ( 14465 PWs)   bands (ev):

   -45.1035  -4.4909  -3.7232  -3.5702  -3.5080  -3.2437  -3.1956  -3.0128
    -2.8667  -2.7506  -2.7098  -2.6642  -2.5972  -2.5014  -2.3152  -2.2772
    -2.2074  -1.9945  -1.9464  -1.8911  -1.6422  -1.5922  -1.5774  -1.4936
    -1.4166  -1.3734  -1.2990  -1.1457  -1.1247  -1.0135  -0.8300  -0.7605
    -0.7502  -0.6480   0.7283   2.1052   3.4021   5.0667   5.8552   6.3008
     7.1747   7.4154

          k = 0.1250 0.2500 0.0000 ( 14449 PWs)   bands (ev):

   -45.1027  -3.9387  -3.5416  -3.3872  -3.3003  -3.2441  -3.0967  -2.9925
    -2.9299  -2.8187  -2.7592  -2.6729  -2.6277  -2.4978  -2.2713  -2.1979
    -2.1494  -1.9858  -1.8978  -1.7083  -1.6313  -1.5398  -1.5248  -1.4840
    -1.4298  -1.2744  -1.2479  -1.2146  -1.1748  -0.9651  -0.8797  -0.7796
    -0.6966  -0.0687   1.3416   2.7254   4.0905   5.3047   5.5881   6.2406
     6.4923   6.9616

          k = 0.1250 0.3750 0.0000 ( 14401 PWs)   bands (ev):

   -45.1018  -3.6500  -3.5900  -3.4068  -3.2186  -3.1296  -3.0933  -3.0225
    -2.9832  -2.8364  -2.7153  -2.6276  -2.4228  -2.3779  -2.2287  -2.0370
    -1.9950  -1.8386  -1.7853  -1.6367  -1.6171  -1.5173  -1.4737  -1.4133
    -1.3441  -1.3079  -1.2189  -1.1067  -0.9708  -0.8262  -0.7446  -0.6910
    -0.1403   0.9298   2.1855   2.7966   3.4013   3.7042   4.7316   5.1688
     6.6963   7.1560

          k = 0.1250-0.5000 0.0000 ( 14406 PWs)   bands (ev):

   -45.1015  -3.7025  -3.6461  -3.3400  -3.2650  -3.1805  -3.1179  -3.0050
    -2.9170  -2.7949  -2.6510  -2.5683  -2.5392  -2.2382  -2.0778  -2.0636
    -1.9803  -1.8404  -1.7010  -1.6408  -1.5928  -1.4779  -1.4093  -1.3775
    -1.2899  -1.2744  -1.1281  -1.0046  -0.9853  -0.8476  -0.8240   0.6468
     0.6810   1.4065   1.4435   2.3527   2.4446   3.0366   4.7378   5.0110
     6.1475   7.3057

          k = 0.1250-0.3750 0.0000 ( 14401 PWs)   bands (ev):

   -45.1018  -3.6500  -3.5900  -3.4068  -3.2186  -3.1296  -3.0933  -3.0225
    -2.9832  -2.8364  -2.7153  -2.6276  -2.4228  -2.3779  -2.2287  -2.0370
    -1.9950  -1.8386  -1.7853  -1.6367  -1.6171  -1.5173  -1.4737  -1.4133
    -1.3441  -1.3079  -1.2189  -1.1067  -0.9708  -0.8262  -0.7446  -0.6910
    -0.1403   0.9298   2.1855   2.7966   3.4013   3.7042   4.7316   5.1688
     6.6963   7.1560

          k = 0.1250-0.2500 0.0000 ( 14449 PWs)   bands (ev):

   -45.1027  -3.9387  -3.5416  -3.3872  -3.3003  -3.2441  -3.0967  -2.9925
    -2.9299  -2.8187  -2.7592  -2.6729  -2.6277  -2.4978  -2.2713  -2.1979
    -2.1494  -1.9858  -1.8978  -1.7083  -1.6313  -1.5398  -1.5248  -1.4840
    -1.4298  -1.2744  -1.2479  -1.2146  -1.1748  -0.9651  -0.8797  -0.7796
    -0.6966  -0.0687   1.3416   2.7254   4.0905   5.3047   5.5881   6.2406
     6.4923   6.9616

          k = 0.1250-0.1250 0.0000 ( 14465 PWs)   bands (ev):

   -45.1035  -4.4909  -3.7232  -3.5702  -3.5080  -3.2437  -3.1956  -3.0128
    -2.8667  -2.7506  -2.7098  -2.6642  -2.5972  -2.5014  -2.3152  -2.2772
    -2.2074  -1.9945  -1.9464  -1.8911  -1.6422  -1.5922  -1.5774  -1.4936
    -1.4166  -1.3734  -1.2990  -1.1457  -1.1247  -1.0135  -0.8300  -0.7605
    -0.7502  -0.6480   0.7283   2.1052   3.4021   5.0667   5.8552   6.3008
     7.1747   7.4154

          k = 0.2500-0.0000 0.0000 ( 14429 PWs)   bands (ev):

   -45.1030  -4.1125  -3.6959  -3.5149  -3.4151  -3.3431  -3.2622  -2.9435
    -2.9005  -2.8916  -2.7487  -2.5779  -2.4904  -2.3258  -2.2428  -2.0716
    -2.0681  -1.9844  -1.7938  -1.7082  -1.6206  -1.5662  -1.5216  -1.4969
    -1.4312  -1.4014  -1.3749  -1.1957  -1.1819  -0.9846  -0.8885  -0.6217
    -0.6057  -0.5283   1.0701   2.4814   3.7885   4.9798   5.4892   5.8612
     6.2281   6.7058

          k = 0.2500 0.1250 0.0000 ( 14449 PWs)   bands (ev):

   -45.1027  -3.9353  -3.5311  -3.3854  -3.3017  -3.2588  -3.1669  -2.9979
    -2.9365  -2.8161  -2.7496  -2.6726  -2.6329  -2.5010  -2.2783  -2.1677
    -2.0780  -2.0141  -1.8888  -1.7048  -1.6299  -1.5448  -1.5184  -1.4758
    -1.4263  -1.2628  -1.2531  -1.2160  -1.1747  -0.9815  -0.8824  -0.7795
    -0.6945  -0.0479   1.3890   2.7390   4.0725   5.3086   5.7482   6.0985
     6.4870   6.9247

          k = 0.2500 0.2500 0.0000 ( 14420 PWs)   bands (ev):

   -45.1019  -3.6008  -3.3016  -3.2471  -3.2353  -3.0197  -2.9828  -2.9429
    -2.8762  -2.8556  -2.8235  -2.7628  -2.7088  -2.7021  -2.3145  -2.2511
    -2.1483  -1.9621  -1.9549  -1.6465  -1.6127  -1.4340  -1.4207  -1.4159
    -1.3946  -1.2980  -1.2726  -1.2127  -1.0709  -1.0443  -0.9467  -0.6837
    -0.3503   0.7900   2.1236   3.4371   4.8047   5.7582   6.2576   6.4822
     6.8644   6.9351

          k = 0.2500 0.3750 0.0000 ( 14394 PWs)   bands (ev):

   -45.1010  -3.4942  -3.3668  -3.3397  -3.2427  -3.1863  -3.1016  -2.9827
    -2.9500  -2.8715  -2.7145  -2.6084  -2.5137  -2.4388  -2.2228  -2.1116
    -1.9798  -1.8976  -1.7346  -1.6557  -1.4891  -1.4754  -1.4452  -1.3606
    -1.3299  -1.2871  -1.2002  -1.1565  -1.0807  -1.0150  -0.7280  -0.3488
     0.6738   1.8712   3.0428   3.5194   4.2969   4.5876   5.2868   5.9053
     6.9138   7.6341

          k = 0.2500-0.5000 0.0000 ( 14414 PWs)   bands (ev):

   -45.1008  -3.4873  -3.4125  -3.3827  -3.2932  -3.2720  -3.1661  -3.0554
    -2.9798  -2.9137  -2.7226  -2.6213  -2.4215  -2.2668  -2.0104  -1.9969
    -1.8994  -1.8220  -1.7102  -1.5402  -1.5065  -1.4852  -1.4514  -1.3369
    -1.3282  -1.2639  -1.1654  -1.1321  -1.0473  -0.9371  -0.9045   1.2591
     1.2869   2.1572   2.3016   3.1460   3.5682   4.2391   5.1997   5.6184
     6.6888   7.6608

          k = 0.2500-0.3750 0.0000 ( 14394 PWs)   bands (ev):

   -45.1010  -3.4942  -3.3668  -3.3397  -3.2427  -3.1863  -3.1016  -2.9827
    -2.9500  -2.8715  -2.7145  -2.6084  -2.5137  -2.4388  -2.2228  -2.1116
    -1.9798  -1.8976  -1.7346  -1.6557  -1.4891  -1.4754  -1.4452  -1.3606
    -1.3299  -1.2871  -1.2002  -1.1565  -1.0807  -1.0150  -0.7280  -0.3488
     0.6738   1.8712   3.0428   3.5194   4.2969   4.5876   5.2868   5.9053
     6.9138   7.6341

          k = 0.2500-0.2500 0.0000 ( 14420 PWs)   bands (ev):

   -45.1019  -3.6008  -3.3016  -3.2471  -3.2353  -3.0197  -2.9828  -2.9429
    -2.8762  -2.8556  -2.8235  -2.7628  -2.7088  -2.7021  -2.3145  -2.2511
    -2.1483  -1.9621  -1.9549  -1.6465  -1.6127  -1.4340  -1.4207  -1.4159
    -1.3946  -1.2980  -1.2726  -1.2127  -1.0709  -1.0443  -0.9467  -0.6837
    -0.3503   0.7900   2.1236   3.4371   4.8047   5.7582   6.2576   6.4823
     6.8645   6.9352

          k = 0.2500-0.1250 0.0000 ( 14449 PWs)   bands (ev):

   -45.1027  -3.9353  -3.5311  -3.3854  -3.3017  -3.2588  -3.1669  -2.9979
    -2.9365  -2.8161  -2.7496  -2.6726  -2.6329  -2.5010  -2.2783  -2.1677
    -2.0780  -2.0141  -1.8888  -1.7048  -1.6299  -1.5448  -1.5184  -1.4758
    -1.4263  -1.2628  -1.2531  -1.2160  -1.1747  -0.9815  -0.8824  -0.7795
    -0.6945  -0.0479   1.3890   2.7390   4.0725   5.3086   5.7482   6.0985
     6.4870   6.9247

          k = 0.3750-0.0000 0.0000 ( 14361 PWs)   bands (ev):

   -45.1021  -3.7800  -3.7270  -3.4859  -3.3337  -3.1318  -3.1200  -3.0820
    -2.9097  -2.7718  -2.7250  -2.6357  -2.3701  -2.2394  -2.1586  -2.0365
    -2.0310  -1.7872  -1.7245  -1.6941  -1.5824  -1.5306  -1.4986  -1.4673
    -1.3592  -1.3481  -1.2693  -0.9002  -0.8300  -0.8299  -0.5856  -0.5618
    -0.5303   0.4533   1.9474   2.4461   3.2164   3.6157   4.2173   4.9141
     5.7863   7.0708

          k = 0.3750 0.1250 0.0000 ( 14401 PWs)   bands (ev):

   -45.1019  -3.6347  -3.5961  -3.3998  -3.2374  -3.1344  -3.0940  -3.0519
    -3.0023  -2.8413  -2.7179  -2.6334  -2.4250  -2.3743  -2.2459  -2.0569
    -1.9695  -1.8308  -1.7407  -1.6332  -1.6187  -1.5141  -1.4709  -1.4119
    -1.3533  -1.3127  -1.2262  -1.1129  -0.9729  -0.8208  -0.7422  -0.6800
    -0.1144   0.9871   2.3388   2.7531   3.5549   3.8866   4.4881   5.1710
     5.9749   7.2293

          k = 0.3750 0.2500 0.0000 ( 14394 PWs)   bands (ev):

   -45.1011  -3.4947  -3.3606  -3.3380  -3.2468  -3.1863  -3.0985  -2.9780
    -2.9461  -2.8671  -2.7192  -2.6010  -2.5334  -2.4404  -2.2509  -2.1391
    -2.0212  -1.8955  -1.6817  -1.6457  -1.4871  -1.4740  -1.4389  -1.3597
    -1.3297  -1.2941  -1.2109  -1.1533  -1.0784  -1.0153  -0.7261  -0.3316
     0.6955   1.9272   3.1781   3.4648   4.3199   4.6372   5.2122   5.9201
     6.4995   7.4985

          k = 0.3750 0.3750 0.0000 ( 14360 PWs)   bands (ev):

   -45.1002  -3.6379  -3.5339  -3.3236  -3.2275  -3.1776  -3.1238  -3.0800
    -2.9198  -2.8648  -2.7909  -2.6457  -2.4735  -2.3504  -2.2330  -2.0637
    -1.9110  -1.7084  -1.6852  -1.4881  -1.4037  -1.3150  -1.3023  -1.2896
    -1.2700  -1.2553  -1.1883  -1.1824  -1.0414  -1.0038  -0.6659   0.5761
     1.7928   3.0158   3.6890   4.2047   5.0088   5.2435   5.7018   6.2204
     6.8057   6.8914

          k = 0.3750-0.5000 0.0000 ( 14356 PWs)   bands (ev):

   -45.0999  -3.6907  -3.6281  -3.3112  -3.2724  -3.2042  -3.1372  -3.1048
    -3.0227  -2.9647  -2.7801  -2.7178  -2.4208  -2.3067  -2.2591  -1.7981
    -1.7694  -1.6938  -1.4598  -1.4517  -1.3944  -1.3765  -1.3163  -1.2517
    -1.2150  -1.2122  -1.1853  -1.1442  -1.0185  -0.8118  -0.7798   2.1210
     2.1295   3.1540   3.3811   4.1340   4.8111   5.6067   5.6275   6.6712
     7.0618   7.2108

          k = 0.3750-0.3750 0.0000 ( 14360 PWs)   bands (ev):

   -45.1002  -3.6379  -3.5339  -3.3236  -3.2275  -3.1776  -3.1238  -3.0800
    -2.9198  -2.8648  -2.7909  -2.6457  -2.4735  -2.3504  -2.2330  -2.0637
    -1.9110  -1.7084  -1.6852  -1.4881  -1.4037  -1.3150  -1.3023  -1.2896
    -1.2700  -1.2553  -1.1883  -1.1824  -1.0414  -1.0038  -0.6659   0.5761
     1.7928   3.0158   3.6890   4.2047   5.0088   5.2435   5.7018   6.2204
     6.8057   6.8914

          k = 0.3750-0.2500 0.0000 ( 14394 PWs)   bands (ev):

   -45.1011  -3.4947  -3.3606  -3.3380  -3.2468  -3.1863  -3.0985  -2.9780
    -2.9461  -2.8671  -2.7192  -2.6010  -2.5334  -2.4404  -2.2509  -2.1391
    -2.0212  -1.8955  -1.6817  -1.6457  -1.4871  -1.4740  -1.4389  -1.3597
    -1.3297  -1.2941  -1.2109  -1.1533  -1.0784  -1.0153  -0.7261  -0.3316
     0.6955   1.9272   3.1781   3.4648   4.3199   4.6372   5.2122   5.9201
     6.4995   7.4985

          k = 0.3750-0.1250 0.0000 ( 14401 PWs)   bands (ev):

   -45.1019  -3.6347  -3.5961  -3.3998  -3.2374  -3.1344  -3.0940  -3.0519
    -3.0023  -2.8413  -2.7179  -2.6334  -2.4250  -2.3743  -2.2459  -2.0569
    -1.9695  -1.8308  -1.7407  -1.6332  -1.6187  -1.5141  -1.4709  -1.4119
    -1.3533  -1.3127  -1.2262  -1.1129  -0.9729  -0.8208  -0.7422  -0.6800
    -0.1144   0.9871   2.3388   2.7531   3.5549   3.8866   4.4881   5.1710
     5.9749   7.2293

          k =-0.5000 0.0000 0.0000 ( 14350 PWs)   bands (ev):

   -45.1018  -3.8263  -3.7895  -3.3831  -3.3457  -3.1999  -3.1553  -2.9163
    -2.7624  -2.7125  -2.6546  -2.6148  -2.4857  -2.2046  -2.0724  -2.0264
    -2.0242  -1.8633  -1.8269  -1.5955  -1.5574  -1.4906  -1.4818  -1.3967
    -1.3828  -1.3183  -1.2145  -0.8810  -0.8142  -0.5208  -0.5145   0.4197
     0.4499   1.0387   1.0888   1.7792   2.3645   3.1842   4.1171   4.6150
     5.2642   7.4000

          k =-0.5000 0.1250 0.0000 ( 14406 PWs)   bands (ev):

   -45.1016  -3.6875  -3.6577  -3.3237  -3.2847  -3.1926  -3.1114  -3.0303
    -2.9156  -2.7774  -2.6928  -2.5791  -2.5272  -2.2698  -2.1018  -2.0262
    -1.9785  -1.8095  -1.6945  -1.6229  -1.6155  -1.4679  -1.4079  -1.3814
    -1.3319  -1.2728  -1.1242  -1.0111  -0.9796  -0.8472  -0.8235   0.6728
     0.6926   1.4310   1.4868   2.3132   2.7744   3.4761   4.3063   4.8873
     5.4625   7.5156

          k =-0.5000 0.2500 0.0000 ( 14414 PWs)   bands (ev):

   -45.1009  -3.4912  -3.4095  -3.3675  -3.2991  -3.2806  -3.1629  -3.0285
    -2.9982  -2.9018  -2.7260  -2.5954  -2.4233  -2.3243  -2.0815  -2.0093
    -1.8930  -1.8299  -1.7022  -1.5284  -1.5016  -1.4761  -1.4316  -1.3362
    -1.3273  -1.2704  -1.1737  -1.1224  -1.0475  -0.9379  -0.8993   1.2736
     1.3170   2.2768   2.3020   3.3751   3.5274   4.3996   4.8420   5.7140
     6.0595   7.8394

          k =-0.5000 0.3750 0.0000 ( 14356 PWs)   bands (ev):

   -45.0999  -3.6913  -3.6277  -3.3122  -3.2719  -3.1849  -3.1639  -3.1056
    -3.0209  -2.9366  -2.7906  -2.6851  -2.4648  -2.3210  -2.2469  -1.8413
    -1.7458  -1.6919  -1.4866  -1.4525  -1.3962  -1.3503  -1.3152  -1.2527
    -1.2169  -1.2107  -1.1887  -1.1376  -1.0134  -0.8261  -0.7653   2.0921
     2.1815   3.2391   3.4239   4.2476   4.5889   5.5038   5.6333   6.8865
     6.9606   7.1919

          k =-0.5000-0.5000 0.0000 ( 14372 PWs)   bands (ev):

   -45.0997  -3.7761  -3.7193  -3.2617  -3.2541  -3.2476  -3.2012  -3.1369
    -3.1162  -2.8671  -2.8341  -2.8124  -2.4768  -2.3507  -2.3086  -1.6771
    -1.5994  -1.5491  -1.3945  -1.3685  -1.2883  -1.2840  -1.2684  -1.2622
    -1.2225  -1.1984  -1.1767  -1.1174  -0.8481  -0.7933  -0.7644   2.6884
     2.7807   4.1309   4.2115   4.3423   5.4286   6.0393   6.0553   6.2285
     6.2716   6.3769

     the Fermi energy is     2.1857 ev

!    total energy              =    -520.56250237 Ry
     estimated scf accuracy    <       0.00000024 Ry
     smearing contrib. (-TS)   =      -0.00210430 Ry
     internal energy E=F+TS    =    -520.56039807 Ry

     The total energy is F=E-TS. E is the sum of the following terms:
     one-electron contribution =   -5468.85411885 Ry
     hartree contribution      =    2781.60067758 Ry
     xc contribution           =    -137.43213160 Ry
     ewald contribution        =    2304.29368069 Ry
     DFT-D3 Dispersion         =      -0.16850589 Ry

     convergence has been achieved in   4 iterations

     negative rho (up, down):  1.267E-05 0.000E+00

     Forces acting on atoms (cartesian axes, Ry/au):

     atom    1 type  2   force =     0.00000078   -0.00000040   -0.00313338
     atom    2 type  2   force =     0.00000178    0.00000042    0.00215946
     atom    3 type  2   force =     0.00000063    0.00000026    0.00137260
     atom    4 type  2   force =    -0.00000162   -0.00000107   -0.00500043
     atom    5 type  2   force =     0.00000052   -0.00000128    0.00704139
     atom    6 type  2   force =    -0.00000018   -0.00000014   -0.00260032
     atom    7 type  1   force =    -0.00000190    0.00000220    0.00016068
     The non-local contrib.  to forces
     atom    1 type  2   force =     0.00000083   -0.00000090    0.00542688
     atom    2 type  2   force =     0.00000136    0.00000015    0.04571171
     atom    3 type  2   force =     0.00000078   -0.00000033    0.00115831
     atom    4 type  2   force =    -0.00000250   -0.00000152   -0.00147103
     atom    5 type  2   force =     0.00000061   -0.00000123   -0.14259883
     atom    6 type  2   force =    -0.00000051   -0.00000013    0.00131589
     atom    7 type  1   force =     0.00000200   -0.00001157    0.05139369
     The ionic contribution  to forces
     atom    1 type  2   force =     0.00000180   -0.00002371   68.48478293
     atom    2 type  2   force =     0.00004460    0.00001587  113.25992910
     atom    3 type  2   force =    -0.00000077    0.00000372  -30.95759943
     atom    4 type  2   force =    -0.00004782    0.00000640   18.30580204
     atom    5 type  2   force =    -0.00000067   -0.00000301 -124.75182122
     atom    6 type  2   force =     0.00000270    0.00000284  -80.47075566
     atom    7 type  1   force =     0.00000016   -0.00000212   36.12966224
     The local contribution  to forces
     atom    1 type  2   force =    -0.00000261    0.00002348  -68.49205932
     atom    2 type  2   force =    -0.00004467   -0.00001616 -113.30211254
     atom    3 type  2   force =    -0.00000005   -0.00000388   30.95633024
     atom    4 type  2   force =     0.00004831   -0.00000542  -18.31001287
     atom    5 type  2   force =     0.00000025    0.00000255  124.89572427
     atom    6 type  2   force =    -0.00000276   -0.00000260   80.46403298
     atom    7 type  1   force =    -0.00000471    0.00001574  -36.17842067
     The core correction contribution to forces
     atom    1 type  2   force =    -0.00000004    0.00000009   -0.00008621
     atom    2 type  2   force =    -0.00000017   -0.00000006   -0.00017088
     atom    3 type  2   force =     0.00000001   -0.00000000    0.00036959
     atom    4 type  2   force =     0.00000019    0.00000001    0.00058399
     atom    5 type  2   force =     0.00000002    0.00000000    0.00557384
     atom    6 type  2   force =    -0.00000002   -0.00000002    0.00079462
     atom    7 type  1   force =     0.00000000    0.00000000    0.00000000
     The Hubbard contrib.    to forces
     atom    1 type  2   force =     0.00000000    0.00000000    0.00000000
     atom    2 type  2   force =     0.00000000    0.00000000    0.00000000
     atom    3 type  2   force =     0.00000000    0.00000000    0.00000000
     atom    4 type  2   force =     0.00000000    0.00000000    0.00000000
     atom    5 type  2   force =     0.00000000    0.00000000    0.00000000
     atom    6 type  2   force =     0.00000000    0.00000000    0.00000000
     atom    7 type  1   force =     0.00000000    0.00000000    0.00000000
     The SCF correction term to forces
     atom    1 type  2   force =     0.00000043    0.00000025    0.00084842
     atom    2 type  2   force =     0.00000035    0.00000027    0.00047936
     atom    3 type  2   force =     0.00000021    0.00000041   -0.00114349
     atom    4 type  2   force =    -0.00000032   -0.00000088    0.00078532
     atom    5 type  2   force =    -0.00000010    0.00000005   -0.00194686
     atom    6 type  2   force =     0.00000000   -0.00000058   -0.00138804
     atom    7 type  1   force =     0.00000022   -0.00000021    0.00010696

     DFT-D3 dispersion contribution to forces:
     atom    1 type  2   force =    -0.00000004    0.00000004   -0.00215675
     atom    2 type  2   force =    -0.00000010   -0.00000002   -0.00178796
     atom    3 type  2   force =     0.00000003   -0.00000001    0.00214671
     atom    4 type  2   force =     0.00000011   -0.00000001   -0.00079854
     atom    5 type  2   force =     0.00000000    0.00000001    0.00199953
     atom    6 type  2   force =    -0.00000000   -0.00000001    0.00328922
     atom    7 type  1   force =     0.00000001    0.00000000   -0.00269221

     Total force =     0.009886     Total SCF correction =     0.002933
     SCF correction compared to forces is large: reduce conv_thr to get better values


     Computing stress (Cartesian axis) and pressure


     negative rho (up, down):  1.267E-05 0.000E+00
          total   stress  (Ry/bohr**3)                   (kbar)     P=      -19.71
  -0.00018489   0.00000000   0.00000000          -27.20        0.00        0.00
   0.00000000  -0.00014301  -0.00000000            0.00      -21.04       -0.00
   0.00000000  -0.00000000  -0.00007399            0.00       -0.00      -10.88

     Energy error            =      1.2E-04 Ry
     Gradient error          =      7.0E-03 Ry/Bohr

     number of scf cycles    =   2
     number of bfgs steps    =   1

     energy             old  =    -520.5623833004 Ry
     energy             new  =    -520.5625023728 Ry

     CASE: energy            _new < energy            _old


     WARNING: bfgs curvature condition failed, Theta= 0.902
     new trust radius        =       0.0085755065 bohr
     new conv_thr            =       0.0000000119 Ry


ATOMIC_POSITIONS (angstrom)
Ag            2.4834659413        2.4834842373       16.5912615418
Ag            0.8277997961        0.8278272142       18.1805850917
Ag            2.4834819249        2.4834803709       13.3132542874
Ag            0.8278256579        0.8278272071       14.9606167693
Ag            2.4834813547        2.4834805339       10.0086633831
Ag            0.8278268091        0.8278261785       11.6524028518
Li            0.8277970507        2.4834843567       20.1780136051



     Writing config-only to output data dir ./Ag_mp-2646971_100_bridge_0/Ag_mp-2646971_100_bridge_0.save/
     NEW-OLD atomic charge density approx. for the potential

     negative rho (up, down):  1.287E-05 0.000E+00

     total cpu time spent up to now is       17.7 secs

     per-process dynamical memory:   213.0 Mb

     Self-consistent Calculation

     iteration #  1     ecut=    55.00 Ry     beta= 0.30
     Davidson diagonalization with overlap
     ethr =  1.00E-06,  avg # of iterations =  3.4

     Threshold (ethr) on eigenvalues was too large:
     Diagonalizing with lowered threshold

     Davidson diagonalization with overlap
     ethr =  3.27E-08,  avg # of iterations =  4.1

     negative rho (up, down):  1.282E-05 0.000E+00

     total cpu time spent up to now is       18.9 secs

     total energy              =    -520.56261103 Ry
     estimated scf accuracy    <       0.00002100 Ry

     iteration #  2     ecut=    55.00 Ry     beta= 0.30
     Davidson diagonalization with overlap
     ethr =  3.04E-08,  avg # of iterations =  2.1

     negative rho (up, down):  1.280E-05 0.000E+00

     total cpu time spent up to now is       19.3 secs

     total energy              =    -520.56260338 Ry
     estimated scf accuracy    <       0.00027668 Ry

     iteration #  3     ecut=    55.00 Ry     beta= 0.30
     Davidson diagonalization with overlap
     ethr =  3.04E-08,  avg # of iterations =  1.9

     negative rho (up, down):  1.281E-05 0.000E+00

     total cpu time spent up to now is       19.7 secs

     total energy              =    -520.56261656 Ry
     estimated scf accuracy    <       0.00008008 Ry

     iteration #  4     ecut=    55.00 Ry     beta= 0.30
     Davidson diagonalization with overlap
     ethr =  3.04E-08,  avg # of iterations =  1.0

     negative rho (up, down):  1.278E-05 0.000E+00

     total cpu time spent up to now is       20.0 secs

     total energy              =    -520.56261953 Ry
     estimated scf accuracy    <       0.00000087 Ry

     iteration #  5     ecut=    55.00 Ry     beta= 0.30
     Davidson diagonalization with overlap
     ethr =  1.26E-09,  avg # of iterations =  2.4

     negative rho (up, down):  1.277E-05 0.000E+00

     total cpu time spent up to now is       20.4 secs

     total energy              =    -520.56261963 Ry
     estimated scf accuracy    <       0.00000012 Ry

     iteration #  6     ecut=    55.00 Ry     beta= 0.30
     Davidson diagonalization with overlap
     ethr =  1.75E-10,  avg # of iterations =  3.5

     negative rho (up, down):  1.276E-05 0.000E+00

     total cpu time spent up to now is       20.8 secs

     total energy              =    -520.56261967 Ry
     estimated scf accuracy    <       0.00000002 Ry

     iteration #  7     ecut=    55.00 Ry     beta= 0.30
     Davidson diagonalization with overlap
     ethr =  2.66E-11,  avg # of iterations =  3.8

     negative rho (up, down):  1.275E-05 0.000E+00

     total cpu time spent up to now is       21.4 secs

     End of self-consistent calculation

          k = 0.0000 0.0000 0.0000 ( 14575 PWs)   bands (ev):

   -45.1030  -4.9414  -4.0187  -3.7820  -3.6984  -3.3839  -3.2928  -2.9770
    -2.8285  -2.5956  -2.5562  -2.5475  -2.5178  -2.4253  -2.4021  -2.2295
    -2.1913  -2.1741  -2.1404  -1.7689  -1.7359  -1.7157  -1.7033  -1.5291
    -1.4203  -1.2895  -1.2291  -1.2092  -1.1857  -0.8933  -0.8683  -0.7850
    -0.7797  -0.6783   0.2979   1.6615   2.9006   4.5555   5.4089   5.8624
     6.7310   6.9282

          k = 0.0000 0.1250 0.0000 ( 14507 PWs)   bands (ev):

   -45.1025  -4.7116  -3.8781  -3.6781  -3.5981  -3.3536  -3.2012  -3.0324
    -2.8346  -2.6880  -2.6538  -2.6224  -2.5014  -2.3866  -2.3667  -2.3192
    -2.2292  -1.9842  -1.9609  -1.9351  -1.7078  -1.6483  -1.5179  -1.4739
    -1.4562  -1.4062  -1.2949  -1.2537  -0.9919  -0.9791  -0.9338  -0.8272
    -0.7136  -0.6666   0.4805   1.8736   3.1534   4.8081   5.6380   6.0814
     6.9622   7.1688

          k = 0.0000 0.2500 0.0000 ( 14429 PWs)   bands (ev):

   -45.1015  -4.1159  -3.7042  -3.5188  -3.4140  -3.3011  -3.1797  -2.9276
    -2.9096  -2.8943  -2.7653  -2.5682  -2.4839  -2.3814  -2.2602  -2.1316
    -2.0495  -1.9771  -1.8309  -1.7064  -1.6394  -1.5749  -1.5207  -1.4881
    -1.4488  -1.3814  -1.3725  -1.1945  -1.1840  -0.9593  -0.8871  -0.6222
    -0.6015  -0.5590   1.0097   2.4563   3.8186   4.9831   5.2939   5.9761
     6.2832   6.7542

          k = 0.0000 0.3750 0.0000 ( 14361 PWs)   bands (ev):

   -45.1006  -3.7919  -3.7202  -3.4976  -3.3156  -3.1167  -3.0855  -3.0116
    -2.9150  -2.7796  -2.7073  -2.6400  -2.3953  -2.2975  -2.1589  -2.0489
    -2.0208  -1.8050  -1.7464  -1.6988  -1.5919  -1.5278  -1.4837  -1.4620
    -1.3477  -1.3244  -1.2789  -0.8771  -0.8590  -0.8324  -0.6086  -0.5568
    -0.5297   0.3957   1.7994   2.4921   3.0348   3.3295   4.5314   4.9148
     6.5958   6.9916

          k = 0.0000-0.5000 0.0000 ( 14350 PWs)   bands (ev):

   -45.1003  -3.8384  -3.7781  -3.4014  -3.3133  -3.1852  -3.1589  -2.8285
    -2.7427  -2.7173  -2.6687  -2.6257  -2.4983  -2.2131  -2.1041  -2.0629
    -2.0529  -1.8475  -1.8304  -1.6099  -1.5471  -1.4949  -1.4291  -1.3959
    -1.3852  -1.3209  -1.2159  -0.8541  -0.8171  -0.5152  -0.5147   0.3928
     0.4441   1.0383   1.0512   1.8863   2.0464   2.5166   4.5278   4.8540
     5.9685   7.1986

          k = 0.1250-0.0000 0.0000 ( 14507 PWs)   bands (ev):

   -45.1025  -4.7117  -3.8758  -3.6897  -3.5906  -3.3598  -3.2223  -3.0746
    -2.8135  -2.7010  -2.6532  -2.5918  -2.4836  -2.3950  -2.3855  -2.2699
    -2.1911  -2.0190  -1.9620  -1.9399  -1.7025  -1.6467  -1.5037  -1.4989
    -1.4557  -1.4143  -1.2823  -1.2395  -1.0070  -0.9822  -0.9276  -0.8234
    -0.7163  -0.6668   0.4939   1.8798   3.1446   4.8174   5.6267   6.0835
     6.9467   7.1779

          k = 0.1250 0.1250 0.0000 ( 14465 PWs)   bands (ev):

   -45.1021  -4.4913  -3.7223  -3.5692  -3.5091  -3.2432  -3.1977  -3.0104
    -2.8693  -2.7499  -2.7101  -2.6643  -2.6000  -2.5043  -2.3150  -2.2758
    -2.2089  -1.9969  -1.9501  -1.8937  -1.6420  -1.5924  -1.5779  -1.4935
    -1.4161  -1.3734  -1.3018  -1.1456  -1.1236  -1.0139  -0.8289  -0.7590
    -0.7504  -0.6488   0.7298   2.1063   3.4053   5.0687   5.8559   6.3013
     7.1746   7.4174

          k = 0.1250 0.2500 0.0000 ( 14449 PWs)   bands (ev):

   -45.1013  -3.9386  -3.5401  -3.3891  -3.3023  -3.2438  -3.0935  -2.9905
    -2.9306  -2.8225  -2.7599  -2.6742  -2.6279  -2.4997  -2.2703  -2.1981
    -2.1528  -1.9884  -1.9009  -1.7115  -1.6314  -1.5405  -1.5235  -1.4847
    -1.4321  -1.2735  -1.2483  -1.2152  -1.1728  -0.9654  -0.8778  -0.7792
    -0.6957  -0.0704   1.3432   2.7269   4.0931   5.3052   5.5893   6.2408
     6.4926   6.9621

          k = 0.1250 0.3750 0.0000 ( 14401 PWs)   bands (ev):

   -45.1004  -3.6475  -3.5906  -3.4090  -3.2183  -3.1276  -3.0941  -3.0225
    -2.9828  -2.8386  -2.7145  -2.6315  -2.4269  -2.3780  -2.2290  -2.0391
    -1.9965  -1.8403  -1.7850  -1.6377  -1.6205  -1.5168  -1.4737  -1.4123
    -1.3433  -1.3088  -1.2190  -1.1064  -0.9707  -0.8261  -0.7438  -0.6905
    -0.1402   0.9278   2.1865   2.7970   3.4024   3.7044   4.7314   5.1713
     6.6970   7.1568

          k = 0.1250-0.5000 0.0000 ( 14406 PWs)   bands (ev):

   -45.1001  -3.7005  -3.6472  -3.3405  -3.2653  -3.1783  -3.1188  -3.0037
    -2.9185  -2.7939  -2.6535  -2.5714  -2.5448  -2.2379  -2.0756  -2.0653
    -1.9842  -1.8395  -1.7060  -1.6406  -1.5917  -1.4790  -1.4073  -1.3787
    -1.2895  -1.2743  -1.1290  -1.0033  -0.9855  -0.8471  -0.8241   0.6473
     0.6810   1.4066   1.4434   2.3516   2.4426   3.0361   4.7425   5.0125
     6.1478   7.3058

          k = 0.1250-0.3750 0.0000 ( 14401 PWs)   bands (ev):

   -45.1004  -3.6475  -3.5906  -3.4090  -3.2183  -3.1276  -3.0941  -3.0225
    -2.9828  -2.8386  -2.7145  -2.6315  -2.4269  -2.3780  -2.2290  -2.0391
    -1.9965  -1.8403  -1.7850  -1.6377  -1.6205  -1.5168  -1.4737  -1.4123
    -1.3433  -1.3088  -1.2190  -1.1064  -0.9707  -0.8261  -0.7438  -0.6905
    -0.1402   0.9278   2.1865   2.7970   3.4024   3.7044   4.7314   5.1713
     6.6970   7.1568

          k = 0.1250-0.2500 0.0000 ( 14449 PWs)   bands (ev):

   -45.1013  -3.9386  -3.5401  -3.3891  -3.3023  -3.2438  -3.0935  -2.9905
    -2.9306  -2.8225  -2.7599  -2.6742  -2.6279  -2.4997  -2.2703  -2.1981
    -2.1528  -1.9884  -1.9009  -1.7115  -1.6314  -1.5405  -1.5235  -1.4847
    -1.4321  -1.2735  -1.2483  -1.2152  -1.1728  -0.9654  -0.8778  -0.7792
    -0.6957  -0.0704   1.3432   2.7269   4.0931   5.3052   5.5893   6.2408
     6.4926   6.9621

          k = 0.1250-0.1250 0.0000 ( 14465 PWs)   bands (ev):

   -45.1021  -4.4913  -3.7223  -3.5692  -3.5091  -3.2432  -3.1977  -3.0104
    -2.8693  -2.7499  -2.7101  -2.6643  -2.6000  -2.5043  -2.3150  -2.2758
    -2.2089  -1.9969  -1.9501  -1.8937  -1.6420  -1.5924  -1.5779  -1.4935
    -1.4161  -1.3734  -1.3018  -1.1456  -1.1236  -1.0139  -0.8289  -0.7590
    -0.7504  -0.6488   0.7298   2.1063   3.4053   5.0687   5.8559   6.3013
     7.1746   7.4174

          k = 0.2500-0.0000 0.0000 ( 14429 PWs)   bands (ev):

   -45.1016  -4.1125  -3.6949  -3.5162  -3.4173  -3.3390  -3.2619  -2.9413
    -2.9081  -2.8926  -2.7495  -2.5780  -2.4898  -2.3255  -2.2436  -2.0755
    -2.0681  -1.9882  -1.7935  -1.7100  -1.6232  -1.5666  -1.5205  -1.4967
    -1.4317  -1.4030  -1.3753  -1.1933  -1.1826  -0.9841  -0.8888  -0.6218
    -0.6040  -0.5291   1.0718   2.4828   3.7912   4.9799   5.4912   5.8606
     6.2286   6.7061

          k = 0.2500 0.1250 0.0000 ( 14449 PWs)   bands (ev):

   -45.1014  -3.9353  -3.5297  -3.3871  -3.3036  -3.2566  -3.1651  -2.9957
    -2.9378  -2.8199  -2.7502  -2.6740  -2.6329  -2.5030  -2.2789  -2.1692
    -2.0787  -2.0172  -1.8914  -1.7079  -1.6303  -1.5444  -1.5183  -1.4766
    -1.4283  -1.2636  -1.2519  -1.2164  -1.1728  -0.9820  -0.8805  -0.7792
    -0.6936  -0.0494   1.3907   2.7406   4.0751   5.3088   5.7502   6.0979
     6.4876   6.9249

          k = 0.2500 0.2500 0.0000 ( 14420 PWs)   bands (ev):

   -45.1005  -3.6007  -3.2997  -3.2479  -3.2365  -3.0145  -2.9812  -2.9463
    -2.8761  -2.8555  -2.8224  -2.7626  -2.7100  -2.7092  -2.3190  -2.2514
    -2.1465  -1.9663  -1.9569  -1.6509  -1.6113  -1.4368  -1.4228  -1.4150
    -1.3942  -1.2966  -1.2739  -1.2132  -1.0695  -1.0439  -0.9443  -0.6836
    -0.3500   0.7884   2.1254   3.4391   4.8070   5.7583   6.2594   6.4830
     6.8645   6.9351

          k = 0.2500 0.3750 0.0000 ( 14394 PWs)   bands (ev):

   -45.0997  -3.4928  -3.3662  -3.3401  -3.2433  -3.1872  -3.1006  -2.9818
    -2.9489  -2.8718  -2.7197  -2.6114  -2.5111  -2.4408  -2.2266  -2.1117
    -1.9791  -1.8997  -1.7344  -1.6585  -1.4886  -1.4771  -1.4452  -1.3610
    -1.3321  -1.2867  -1.1989  -1.1587  -1.0794  -1.0148  -0.7280  -0.3485
     0.6739   1.8696   3.0441   3.5197   4.2981   4.5885   5.2869   5.9075
     6.9145   7.6356

          k = 0.2500-0.5000 0.0000 ( 14414 PWs)   bands (ev):

   -45.0994  -3.4839  -3.4149  -3.3817  -3.2943  -3.2726  -3.1669  -3.0529
    -2.9778  -2.9151  -2.7297  -2.6223  -2.4242  -2.2655  -2.0133  -1.9944
    -1.9004  -1.8221  -1.7150  -1.5404  -1.5058  -1.4861  -1.4495  -1.3389
    -1.3266  -1.2661  -1.1653  -1.1327  -1.0480  -0.9364  -0.9056   1.2593
     1.2870   2.1567   2.3015   3.1455   3.5666   4.2397   5.2018   5.6221
     6.6896   7.6608

          k = 0.2500-0.3750 0.0000 ( 14394 PWs)   bands (ev):

   -45.0997  -3.4928  -3.3662  -3.3401  -3.2433  -3.1872  -3.1006  -2.9818
    -2.9489  -2.8718  -2.7197  -2.6114  -2.5111  -2.4408  -2.2266  -2.1117
    -1.9791  -1.8997  -1.7344  -1.6585  -1.4886  -1.4771  -1.4452  -1.3610
    -1.3321  -1.2867  -1.1989  -1.1587  -1.0794  -1.0148  -0.7280  -0.3485
     0.6739   1.8696   3.0441   3.5197   4.2981   4.5885   5.2869   5.9075
     6.9145   7.6356

          k = 0.2500-0.2500 0.0000 ( 14420 PWs)   bands (ev):

   -45.1005  -3.6007  -3.2997  -3.2479  -3.2365  -3.0145  -2.9812  -2.9463
    -2.8761  -2.8555  -2.8224  -2.7626  -2.7100  -2.7092  -2.3190  -2.2514
    -2.1465  -1.9663  -1.9569  -1.6509  -1.6113  -1.4368  -1.4228  -1.4150
    -1.3942  -1.2966  -1.2739  -1.2132  -1.0695  -1.0439  -0.9443  -0.6836
    -0.3500   0.7884   2.1254   3.4391   4.8070   5.7583   6.2594   6.4830
     6.8645   6.9351

          k = 0.2500-0.1250 0.0000 ( 14449 PWs)   bands (ev):

   -45.1014  -3.9353  -3.5297  -3.3871  -3.3036  -3.2566  -3.1651  -2.9957
    -2.9378  -2.8199  -2.7502  -2.6740  -2.6329  -2.5030  -2.2789  -2.1692
    -2.0787  -2.0172  -1.8914  -1.7079  -1.6303  -1.5444  -1.5183  -1.4766
    -1.4283  -1.2636  -1.2519  -1.2164  -1.1728  -0.9820  -0.8805  -0.7792
    -0.6936  -0.0494   1.3907   2.7406   4.0751   5.3088   5.7502   6.0979
     6.4876   6.9249

          k = 0.3750-0.0000 0.0000 ( 14361 PWs)   bands (ev):

   -45.1008  -3.7779  -3.7276  -3.4875  -3.3339  -3.1296  -3.1180  -3.0831
    -2.9101  -2.7791  -2.7247  -2.6357  -2.3705  -2.2377  -2.1614  -2.0426
    -2.0341  -1.7892  -1.7238  -1.6941  -1.5821  -1.5314  -1.4985  -1.4684
    -1.3596  -1.3459  -1.2693  -0.8994  -0.8302  -0.8292  -0.5862  -0.5612
    -0.5289   0.4509   1.9491   2.4461   3.2161   3.6170   4.2168   4.9165
     5.7871   7.0716

          k = 0.3750 0.1250 0.0000 ( 14401 PWs)   bands (ev):

   -45.1005  -3.6328  -3.5965  -3.4016  -3.2364  -3.1324  -3.0947  -3.0500
    -3.0041  -2.8437  -2.7171  -2.6376  -2.4283  -2.3756  -2.2462  -2.0591
    -1.9713  -1.8327  -1.7400  -1.6337  -1.6222  -1.5138  -1.4710  -1.4109
    -1.3537  -1.3125  -1.2261  -1.1130  -0.9728  -0.8207  -0.7413  -0.6796
    -0.1141   0.9852   2.3407   2.7532   3.5549   3.8879   4.4876   5.1735
     5.9757   7.2302

          k = 0.3750 0.2500 0.0000 ( 14394 PWs)   bands (ev):

   -45.0997  -3.4931  -3.3609  -3.3381  -3.2472  -3.1873  -3.0978  -2.9767
    -2.9446  -2.8678  -2.7242  -2.6039  -2.5304  -2.4432  -2.2533  -2.1398
    -2.0220  -1.8978  -1.6833  -1.6464  -1.4864  -1.4757  -1.4392  -1.3600
    -1.3318  -1.2939  -1.2095  -1.1555  -1.0770  -1.0152  -0.7262  -0.3313
     0.6957   1.9257   3.1800   3.4650   4.3200   4.6392   5.2120   5.9224
     6.5001   7.4997

          k = 0.3750 0.3750 0.0000 ( 14360 PWs)   bands (ev):

   -45.0989  -3.6362  -3.5354  -3.3242  -3.2282  -3.1770  -3.1213  -3.0798
    -2.9238  -2.8651  -2.7913  -2.6439  -2.4750  -2.3517  -2.2365  -2.0659
    -1.9125  -1.7059  -1.6840  -1.4895  -1.4051  -1.3173  -1.3017  -1.2894
    -1.2701  -1.2571  -1.1900  -1.1834  -1.0404  -1.0048  -0.6662   0.5761
     1.7928   3.0146   3.6890   4.2061   5.0091   5.2444   5.7044   6.2208
     6.8057   6.8892

          k = 0.3750-0.5000 0.0000 ( 14356 PWs)   bands (ev):

   -45.0986  -3.6883  -3.6305  -3.3115  -3.2727  -3.2033  -3.1359  -3.1048
    -3.0241  -2.9645  -2.7839  -2.7169  -2.4225  -2.3087  -2.2609  -1.7989
    -1.7713  -1.6921  -1.4606  -1.4508  -1.3949  -1.3743  -1.3164  -1.2528
    -1.2170  -1.2129  -1.1862  -1.1454  -1.0211  -0.8118  -0.7807   2.1210
     2.1296   3.1532   3.3811   4.1342   4.8104   5.6081   5.6281   6.6733
     7.0634   7.2095

          k = 0.3750-0.3750 0.0000 ( 14360 PWs)   bands (ev):

   -45.0989  -3.6362  -3.5354  -3.3242  -3.2282  -3.1770  -3.1213  -3.0798
    -2.9238  -2.8651  -2.7913  -2.6439  -2.4750  -2.3517  -2.2365  -2.0659
    -1.9125  -1.7059  -1.6840  -1.4895  -1.4051  -1.3173  -1.3017  -1.2894
    -1.2701  -1.2571  -1.1900  -1.1834  -1.0404  -1.0048  -0.6662   0.5761
     1.7928   3.0146   3.6890   4.2061   5.0091   5.2444   5.7044   6.2208
     6.8057   6.8892

          k = 0.3750-0.2500 0.0000 ( 14394 PWs)   bands (ev):

   -45.0997  -3.4931  -3.3609  -3.3381  -3.2472  -3.1873  -3.0978  -2.9767
    -2.9446  -2.8678  -2.7242  -2.6039  -2.5304  -2.4432  -2.2533  -2.1398
    -2.0220  -1.8978  -1.6833  -1.6464  -1.4864  -1.4757  -1.4392  -1.3600
    -1.3318  -1.2939  -1.2095  -1.1555  -1.0770  -1.0152  -0.7262  -0.3313
     0.6957   1.9257   3.1800   3.4650   4.3200   4.6392   5.2120   5.9224
     6.5001   7.4997

          k = 0.3750-0.1250 0.0000 ( 14401 PWs)   bands (ev):

   -45.1005  -3.6328  -3.5965  -3.4016  -3.2364  -3.1324  -3.0947  -3.0500
    -3.0041  -2.8437  -2.7171  -2.6376  -2.4283  -2.3756  -2.2462  -2.0591
    -1.9713  -1.8327  -1.7400  -1.6337  -1.6222  -1.5138  -1.4710  -1.4109
    -1.3537  -1.3125  -1.2261  -1.1130  -0.9728  -0.8207  -0.7413  -0.6796
    -0.1141   0.9852   2.3407   2.7532   3.5549   3.8879   4.4876   5.1735
     5.9757   7.2303

          k =-0.5000 0.0000 0.0000 ( 14350 PWs)   bands (ev):

   -45.1005  -3.8244  -3.7907  -3.3826  -3.3465  -3.1980  -3.1563  -2.9158
    -2.7619  -2.7127  -2.6606  -2.6133  -2.4893  -2.2064  -2.0800  -2.0258
    -2.0257  -1.8624  -1.8278  -1.5941  -1.5585  -1.4905  -1.4808  -1.3948
    -1.3845  -1.3183  -1.2163  -0.8803  -0.8142  -0.5194  -0.5139   0.4207
     0.4494   1.0383   1.0898   1.7772   2.3613   3.1841   4.1189   4.6199
     5.2648   7.4058

          k =-0.5000 0.1250 0.0000 ( 14406 PWs)   bands (ev):

   -45.1002  -3.6858  -3.6586  -3.3241  -3.2846  -3.1903  -3.1122  -3.0291
    -2.9173  -2.7759  -2.6952  -2.5827  -2.5331  -2.2704  -2.0994  -2.0282
    -1.9823  -1.8082  -1.6997  -1.6227  -1.6145  -1.4685  -1.4059  -1.3829
    -1.3319  -1.2727  -1.1251  -1.0096  -0.9798  -0.8468  -0.8235   0.6733
     0.6925   1.4309   1.4875   2.3113   2.7722   3.4763   4.3081   4.8921
     5.4631   7.5212

          k =-0.5000 0.2500 0.0000 ( 14414 PWs)   bands (ev):

   -45.0995  -3.4878  -3.4120  -3.3667  -3.2989  -3.2821  -3.1639  -3.0253
    -2.9964  -2.9032  -2.7331  -2.5962  -2.4252  -2.3241  -2.0792  -2.0122
    -1.8941  -1.8300  -1.7073  -1.5273  -1.5022  -1.4773  -1.4289  -1.3383
    -1.3256  -1.2724  -1.1738  -1.1231  -1.0481  -0.9372  -0.9004   1.2738
     1.3169   2.2770   2.3020   3.3738   3.5260   4.4004   4.8440   5.7181
     6.0601   7.8440

          k =-0.5000 0.3750 0.0000 ( 14356 PWs)   bands (ev):

   -45.0986  -3.6889  -3.6301  -3.3125  -3.2723  -3.1842  -3.1623  -3.1059
    -3.0225  -2.9363  -2.7941  -2.6837  -2.4657  -2.3241  -2.2487  -1.8422
    -1.7476  -1.6901  -1.4855  -1.4536  -1.3971  -1.3477  -1.3153  -1.2537
    -1.2188  -1.2115  -1.1897  -1.1388  -1.0161  -0.8262  -0.7660   2.0924
     2.1812   3.2387   3.4241   4.2475   4.5885   5.5038   5.6352   6.8886
     6.9622   7.1905

          k =-0.5000-0.5000 0.0000 ( 14372 PWs)   bands (ev):

   -45.0983  -3.7742  -3.7215  -3.2612  -3.2537  -3.2470  -3.2027  -3.1369
    -3.1163  -2.8677  -2.8347  -2.8112  -2.4819  -2.3523  -2.3099  -1.6745
    -1.6008  -1.5504  -1.3942  -1.3698  -1.2883  -1.2814  -1.2678  -1.2603
    -1.2234  -1.2007  -1.1786  -1.1197  -0.8520  -0.7937  -0.7647   2.6884
     2.7802   4.1310   4.2115   4.3427   5.4301   6.0390   6.0568   6.2252
     6.2687   6.3770

     the Fermi energy is     2.1859 ev

!    total energy              =    -520.56261968 Ry
     estimated scf accuracy    <          4.2E-09 Ry
     smearing contrib. (-TS)   =      -0.00210323 Ry
     internal energy E=F+TS    =    -520.56051645 Ry

     The total energy is F=E-TS. E is the sum of the following terms:
     one-electron contribution =   -5470.70250733 Ry
     hartree contribution      =    2782.51365781 Ry
     xc contribution           =    -137.43283659 Ry
     ewald contribution        =    2305.22969436 Ry
     DFT-D3 Dispersion         =      -0.16852470 Ry

     convergence has been achieved in   7 iterations

[...]
    -2.9817  -2.9054  -2.8212  -2.7253  -2.6736  -2.5558  -2.2702  -2.2042
    -2.1874  -2.0150  -1.9378  -1.7642  -1.6662  -1.5472  -1.5245  -1.4942
    -1.4530  -1.2860  -1.2564  -1.2296  -1.1458  -0.9582  -0.8583  -0.7666
    -0.6823  -0.0696   1.3869   2.7761   4.1660   5.2694   5.6465   6.2532
     6.5147   6.9832

          k = 0.1250-0.1250 0.0000 ( 14465 PWs)   bands (ev):

   -45.0951  -4.5957  -3.7807  -3.6503  -3.6009  -3.3011  -3.2868  -3.0181
    -2.9276  -2.8300  -2.7344  -2.6891  -2.6689  -2.6026  -2.3455  -2.2676
    -2.2258  -2.0404  -1.9885  -1.9397  -1.6697  -1.6047  -1.5880  -1.5151
    -1.4256  -1.3651  -1.3491  -1.1643  -1.1125  -1.0111  -0.8049  -0.7597
    -0.7334  -0.6368   0.7847   2.1555   3.4908   5.1614   5.8901   6.3238
     7.1904   7.4956

          k = 0.2500-0.0000 0.0000 ( 14429 PWs)   bands (ev):

   -45.0946  -4.2120  -3.7647  -3.5877  -3.5480  -3.3807  -3.2707  -3.0234
    -3.0039  -2.9891  -2.7912  -2.6529  -2.5214  -2.3353  -2.2584  -2.1333
    -2.0781  -2.0305  -1.8128  -1.7486  -1.6595  -1.5629  -1.5161  -1.5146
    -1.4352  -1.4239  -1.3749  -1.2021  -1.1738  -0.9801  -0.8945  -0.6116
    -0.5810  -0.5169   1.1198   2.5263   3.8644   4.9343   5.5744   5.8509
     6.2517   6.7214

          k = 0.2500 0.1250 0.0000 ( 14449 PWs)   bands (ev):

   -45.0943  -4.0349  -3.5986  -3.4665  -3.4290  -3.3245  -3.1704  -3.0550
    -3.0152  -2.9035  -2.8147  -2.7259  -2.6720  -2.5613  -2.2974  -2.1875
    -2.0872  -2.0472  -1.9225  -1.7597  -1.6669  -1.5454  -1.5286  -1.4897
    -1.4431  -1.2751  -1.2610  -1.2288  -1.1444  -0.9765  -0.8605  -0.7670
    -0.6802  -0.0475   1.4362   2.7861   4.1501   5.2692   5.8341   6.0875
     6.5120   6.9400

          k = 0.2500 0.2500 0.0000 ( 14420 PWs)   bands (ev):

   -45.0935  -3.6965  -3.3745  -3.3522  -3.3213  -3.0448  -3.0124  -2.9946
    -2.9484  -2.9013  -2.8738  -2.8291  -2.8174  -2.7592  -2.3717  -2.2506
    -2.1248  -2.0187  -1.9762  -1.7045  -1.6195  -1.4966  -1.4589  -1.4281
    -1.4003  -1.2994  -1.2864  -1.2016  -1.0591  -1.0224  -0.9127  -0.6899
    -0.3478   0.7965   2.1694   3.4907   4.8810   5.7118   6.3128   6.5081
     6.8496   6.9337

          k = 0.2500 0.3750 0.0000 ( 14394 PWs)   bands (ev):

   -45.0927  -3.5695  -3.4353  -3.4282  -3.3295  -3.2582  -3.1587  -2.9959
    -2.9879  -2.9174  -2.8089  -2.6773  -2.5292  -2.4790  -2.3097  -2.1281
    -1.9800  -1.9344  -1.7530  -1.7014  -1.5129  -1.4984  -1.4623  -1.3791
    -1.3553  -1.2972  -1.1987  -1.1704  -1.0739  -1.0214  -0.7357  -0.3683
     0.6785   1.8809   3.0782   3.4878   4.3267   4.6120   5.2972   5.9775
     6.9459   7.7027

          k = 0.2500-0.5000 0.0000 ( 14414 PWs)   bands (ev):

   -45.0924  -3.5271  -3.5126  -3.4432  -3.4038  -3.3228  -3.2746  -3.0372
    -3.0008  -2.9718  -2.8362  -2.6375  -2.4884  -2.2692  -2.0904  -1.9806
    -1.9321  -1.8407  -1.8006  -1.5471  -1.5462  -1.4800  -1.4442  -1.3488
    -1.3158  -1.3079  -1.1801  -1.1656  -1.0624  -0.9441  -0.9216   1.2304
     1.2504   2.1516   2.3031   3.1549   3.5808   4.2757   5.2333   5.6881
     6.7307   7.7266

          k = 0.2500-0.3750 0.0000 ( 14394 PWs)   bands (ev):

   -45.0927  -3.5695  -3.4353  -3.4282  -3.3295  -3.2582  -3.1587  -2.9959
    -2.9879  -2.9174  -2.8089  -2.6773  -2.5292  -2.4790  -2.3097  -2.1281
    -1.9800  -1.9344  -1.7530  -1.7014  -1.5129  -1.4984  -1.4623  -1.3791
    -1.3553  -1.2972  -1.1987  -1.1704  -1.0739  -1.0214  -0.7357  -0.3683
     0.6785   1.8809   3.0782   3.4878   4.3267   4.6120   5.2972   5.9775
     6.9459   7.7026

          k = 0.2500-0.2500 0.0000 ( 14420 PWs)   bands (ev):

   -45.0935  -3.6965  -3.3745  -3.3522  -3.3213  -3.0448  -3.0124  -2.9946
    -2.9484  -2.9013  -2.8738  -2.8291  -2.8174  -2.7592  -2.3717  -2.2506
    -2.1248  -2.0187  -1.9762  -1.7045  -1.6195  -1.4966  -1.4589  -1.4281
    -1.4003  -1.2994  -1.2864  -1.2016  -1.0591  -1.0224  -0.9127  -0.6899
    -0.3478   0.7965   2.1694   3.4907   4.8810   5.7118   6.3128   6.5081
     6.8496   6.9337

          k = 0.2500-0.1250 0.0000 ( 14449 PWs)   bands (ev):

   -45.0943  -4.0349  -3.5986  -3.4665  -3.4290  -3.3245  -3.1704  -3.0550
    -3.0152  -2.9035  -2.8147  -2.7259  -2.6720  -2.5613  -2.2974  -2.1875
    -2.0872  -2.0472  -1.9225  -1.7597  -1.6669  -1.5454  -1.5286  -1.4897
    -1.4431  -1.2751  -1.2610  -1.2288  -1.1444  -0.9765  -0.8605  -0.7670
    -0.6802  -0.0475   1.4362   2.7861   4.1501   5.2692   5.8341   6.0875
     6.5120   6.9400

          k = 0.3750-0.0000 0.0000 ( 14361 PWs)   bands (ev):

   -45.0937  -3.8463  -3.8231  -3.5726  -3.4150  -3.2021  -3.1860  -3.1154
    -2.9915  -2.8914  -2.7906  -2.6898  -2.4009  -2.2560  -2.2028  -2.1063
    -2.0772  -1.8316  -1.7169  -1.6931  -1.6001  -1.5166  -1.5099  -1.4761
    -1.3663  -1.3431  -1.2494  -0.8928  -0.8427  -0.8257  -0.6075  -0.5435
    -0.5029   0.4439   1.9814   2.4026   3.2085   3.6402   4.2205   4.9770
     5.7985   7.1063

          k = 0.3750 0.1250 0.0000 ( 14401 PWs)   bands (ev):

   -45.0935  -3.7008  -3.6888  -3.4955  -3.3047  -3.1972  -3.1775  -3.1040
    -3.0731  -2.9112  -2.7596  -2.7135  -2.4833  -2.4057  -2.2619  -2.0956
    -2.0060  -1.8812  -1.7397  -1.6650  -1.6458  -1.5173  -1.4624  -1.4182
    -1.3631  -1.3017  -1.2406  -1.1098  -0.9744  -0.8211  -0.7332  -0.6827
    -0.1142   0.9888   2.3770   2.7137   3.5540   3.9162   4.4929   5.2373
     5.9889   7.2738

          k = 0.3750 0.2500 0.0000 ( 14394 PWs)   bands (ev):

   -45.0927  -3.5688  -3.4343  -3.4271  -3.3298  -3.2579  -3.1601  -3.0056
    -2.9592  -2.9175  -2.8115  -2.6700  -2.5322  -2.4982  -2.3191  -2.1559
    -2.0417  -1.9346  -1.7370  -1.6550  -1.5111  -1.4932  -1.4604  -1.3762
    -1.3551  -1.3054  -1.1984  -1.1768  -1.0735  -1.0199  -0.7337  -0.3519
     0.7015   1.9384   3.2209   3.4302   4.3227   4.6857   5.2227   5.9892
     6.5206   7.5451

          k = 0.3750 0.3750 0.0000 ( 14360 PWs)   bands (ev):

   -45.0919  -3.7086  -3.6173  -3.3978  -3.3161  -3.1973  -3.1277  -3.1145
    -2.9938  -2.9149  -2.8340  -2.6420  -2.5361  -2.4015  -2.2758  -2.1486
    -1.9699  -1.6900  -1.6744  -1.5463  -1.4688  -1.3705  -1.3180  -1.3091
    -1.2901  -1.2683  -1.2202  -1.1858  -1.0388  -1.0291  -0.6752   0.5396
     1.7987   3.0298   3.6396   4.2472   5.0167   5.2567   5.7706   6.2189
     6.8184   6.9172

          k = 0.3750-0.5000 0.0000 ( 14356 PWs)   bands (ev):

   -45.0915  -3.7452  -3.7311  -3.3634  -3.3418  -3.2242  -3.1849  -3.1186
    -3.0680  -3.0059  -2.8669  -2.7091  -2.4755  -2.3395  -2.3229  -1.8541
    -1.8342  -1.6812  -1.5292  -1.4737  -1.4179  -1.3666  -1.3395  -1.2771
    -1.2682  -1.2452  -1.2128  -1.1610  -1.0528  -0.8218  -0.7964   2.0743
     2.0884   3.1496   3.3849   4.1530   4.8316   5.6340   5.6707   6.7325
     7.0782   7.1943

          k = 0.3750-0.3750 0.0000 ( 14360 PWs)   bands (ev):

   -45.0919  -3.7086  -3.6173  -3.3978  -3.3161  -3.1973  -3.1277  -3.1145
    -2.9938  -2.9149  -2.8340  -2.6420  -2.5361  -2.4015  -2.2758  -2.1486
    -1.9699  -1.6900  -1.6744  -1.5463  -1.4688  -1.3705  -1.3180  -1.3091
    -1.2901  -1.2683  -1.2202  -1.1858  -1.0388  -1.0291  -0.6752   0.5396
     1.7987   3.0298   3.6396   4.2472   5.0167   5.2567   5.7706   6.2189
     6.8184   6.9172

          k = 0.3750-0.2500 0.0000 ( 14394 PWs)   bands (ev):

   -45.0927  -3.5688  -3.4343  -3.4271  -3.3298  -3.2579  -3.1601  -3.0056
    -2.9592  -2.9175  -2.8115  -2.6700  -2.5322  -2.4982  -2.3191  -2.1559
    -2.0417  -1.9346  -1.7370  -1.6550  -1.5111  -1.4932  -1.4604  -1.3762
    -1.3551  -1.3054  -1.1984  -1.1768  -1.0735  -1.0199  -0.7337  -0.3519
     0.7015   1.9384   3.2209   3.4302   4.3227   4.6857   5.2227   5.9892
     6.5206   7.5451

          k = 0.3750-0.1250 0.0000 ( 14401 PWs)   bands (ev):

   -45.0935  -3.7008  -3.6888  -3.4955  -3.3047  -3.1972  -3.1775  -3.1040
    -3.0731  -2.9112  -2.7596  -2.7135  -2.4833  -2.4057  -2.2619  -2.0956
    -2.0060  -1.8812  -1.7397  -1.6650  -1.6458  -1.5173  -1.4624  -1.4182
    -1.3631  -1.3017  -1.2406  -1.1098  -0.9744  -0.8211  -0.7332  -0.6827
    -0.1142   0.9888   2.3770   2.7137   3.5540   3.9162   4.4929   5.2373
     5.9889   7.2738

          k =-0.5000 0.0000 0.0000 ( 14350 PWs)   bands (ev):

   -45.0934  -3.8971  -3.8905  -3.4365  -3.4198  -3.2743  -3.2608  -2.9359
    -2.8170  -2.7807  -2.7558  -2.6653  -2.5863  -2.2338  -2.1632  -2.0600
    -2.0264  -1.8589  -1.8510  -1.5854  -1.5702  -1.4978  -1.4456  -1.4271
    -1.3730  -1.3218  -1.2274  -0.8679  -0.8098  -0.4937  -0.4905   0.3891
     0.4008   1.0235   1.0804   1.7720   2.3491   3.1914   4.1368   4.6884
     5.2708   7.4914

          k =-0.5000 0.1250 0.0000 ( 14406 PWs)   bands (ev):

   -45.0932  -3.7592  -3.7527  -3.3918  -3.3674  -3.2310  -3.2045  -3.0891
    -3.0197  -2.7815  -2.7408  -2.6720  -2.6089  -2.2712  -2.1024  -2.0702
    -2.0593  -1.8136  -1.7632  -1.6192  -1.6154  -1.4520  -1.4134  -1.3930
    -1.3384  -1.2613  -1.1328  -1.0045  -0.9958  -0.8427  -0.8235   0.6421
     0.6526   1.4257   1.4834   2.3122   2.7739   3.4905   4.3304   4.9626
     5.4707   7.7047

          k =-0.5000 0.2500 0.0000 ( 14414 PWs)   bands (ev):

   -45.0925  -3.5294  -3.5116  -3.4323  -3.4063  -3.3307  -3.2737  -3.0214
    -3.0091  -2.9548  -2.8391  -2.6100  -2.4868  -2.3280  -2.0890  -2.0670
    -1.9253  -1.8490  -1.7952  -1.5620  -1.5157  -1.4818  -1.4143  -1.3489
    -1.3201  -1.3062  -1.1901  -1.1574  -1.0627  -0.9455  -0.9150   1.2418
     1.2784   2.2763   2.3047   3.3834   3.5372   4.4340   4.8795   5.7887
     6.0763   7.9943

          k =-0.5000 0.3750 0.0000 ( 14356 PWs)   bands (ev):

   -45.0916  -3.7455  -3.7308  -3.3646  -3.3407  -3.2137  -3.1937  -3.1346
    -3.0673  -2.9745  -2.8741  -2.6713  -2.5127  -2.3603  -2.3127  -1.8966
    -1.8091  -1.6825  -1.5262  -1.4852  -1.4474  -1.3403  -1.3334  -1.2781
    -1.2676  -1.2433  -1.2176  -1.1553  -1.0491  -0.8372  -0.7795   2.0523
     2.1301   3.2358   3.4306   4.2661   4.6018   5.5421   5.6826   6.9331
     7.0097   7.1729

          k =-0.5000-0.5000 0.0000 ( 14372 PWs)   bands (ev):

   -45.0913  -3.8352  -3.8218  -3.2871  -3.2772  -3.2735  -3.2683  -3.1730
    -3.1560  -2.9173  -2.8839  -2.8014  -2.5423  -2.4144  -2.3702  -1.6516
    -1.6493  -1.5990  -1.4589  -1.4406  -1.3233  -1.2890  -1.2858  -1.2638
    -1.2418  -1.2413  -1.2309  -1.1337  -0.8954  -0.8084  -0.7769   2.6302
     2.7139   4.1477   4.2128   4.3508   5.4433   6.0339   6.0630   6.2522
     6.2961   6.3743

     the Fermi energy is     2.1942 ev

!    total energy              =    -520.56361467 Ry
     estimated scf accuracy    <          7.3E-09 Ry
     smearing contrib. (-TS)   =      -0.00222510 Ry
     internal energy E=F+TS    =    -520.56138957 Ry

     The total energy is F=E-TS. E is the sum of the following terms:
     one-electron contribution =   -5580.27028071 Ry
     hartree contribution      =    2837.24685842 Ry
     xc contribution           =    -137.47208637 Ry
     ewald contribution        =    2360.10419470 Ry
     DFT-D3 Dispersion         =      -0.17007560 Ry

     convergence has been achieved in   6 iterations

     negative rho (up, down):  1.313E-05 0.000E+00

     Forces acting on atoms (cartesian axes, Ry/au):

     atom    1 type  2   force =     0.00000158   -0.00000014    0.00089753
     atom    2 type  2   force =     0.00000377    0.00000018   -0.00022445
     atom    3 type  2   force =     0.00000036    0.00000034   -0.00073515
     atom    4 type  2   force =     0.00000156    0.00000027    0.00000644
     atom    5 type  2   force =     0.00000020   -0.00000067   -0.00017441
     atom    6 type  2   force =     0.00000070    0.00000004    0.00061609
     atom    7 type  1   force =    -0.00000816   -0.00000003   -0.00038604
     The non-local contrib.  to forces
     atom    1 type  2   force =    -0.00000341   -0.00000072    0.00830038
     atom    2 type  2   force =    -0.00000628   -0.00000402    0.04322523
     atom    3 type  2   force =     0.00000049    0.00000059   -0.00371624
     atom    4 type  2   force =     0.00000048    0.00000048    0.00280725
     atom    5 type  2   force =    -0.00000012   -0.00000040   -0.14422592
     atom    6 type  2   force =    -0.00000018   -0.00000011    0.00718008
     atom    7 type  1   force =    -0.00000586   -0.00001197    0.05158818
     The ionic contribution  to forces
     atom    1 type  2   force =     0.00003397    0.00000270   69.33509888
     atom    2 type  2   force =     0.00011221   -0.00000651  114.14578341
     atom    3 type  2   force =    -0.00000110    0.00001439  -30.84654535
     atom    4 type  2   force =     0.00004903    0.00002124   18.86556992
     atom    5 type  2   force =    -0.00000681   -0.00000847 -126.19707874
     atom    6 type  2   force =     0.00001832    0.00001497  -81.61312976
     atom    7 type  1   force =    -0.00020561   -0.00003832   36.31030164
     The local contribution  to forces
     atom    1 type  2   force =    -0.00002900   -0.00000185  -69.33901002
     atom    2 type  2   force =    -0.00010180    0.00001096 -114.18744591
     atom    3 type  2   force =     0.00000051   -0.00001423   30.84660679
     atom    4 type  2   force =    -0.00004804   -0.00002112  -18.86661865
     atom    5 type  2   force =     0.00000663    0.00000842  126.33157630
     atom    6 type  2   force =    -0.00001775   -0.00001447   81.60242618
     atom    7 type  1   force =     0.00020268    0.00005053  -36.35943673
     The core correction contribution to forces
     atom    1 type  2   force =    -0.00000014   -0.00000000   -0.00077819
     atom    2 type  2   force =    -0.00000089   -0.00000010    0.00009732
     atom    3 type  2   force =    -0.00000002   -0.00000006    0.00057601
     atom    4 type  2   force =    -0.00000017   -0.00000008   -0.00030389
     atom    5 type  2   force =     0.00000001    0.00000003    0.00673027
     atom    6 type  2   force =    -0.00000006   -0.00000005    0.00060117
     atom    7 type  1   force =     0.00000000    0.00000000    0.00000000
     The Hubbard contrib.    to forces
     atom    1 type  2   force =     0.00000000    0.00000000    0.00000000
     atom    2 type  2   force =     0.00000000    0.00000000    0.00000000
     atom    3 type  2   force =     0.00000000    0.00000000    0.00000000
     atom    4 type  2   force =     0.00000000    0.00000000    0.00000000
     atom    5 type  2   force =     0.00000000    0.00000000    0.00000000
     atom    6 type  2   force =     0.00000000    0.00000000    0.00000000
     atom    7 type  1   force =     0.00000000    0.00000000    0.00000000
     The SCF correction term to forces
     atom    1 type  2   force =    -0.00000002   -0.00000001   -0.00008249
     atom    2 type  2   force =     0.00000023    0.00000003   -0.00008833
     atom    3 type  2   force =     0.00000015   -0.00000001    0.00006232
     atom    4 type  2   force =     0.00000003    0.00000008    0.00003344
     atom    5 type  2   force =     0.00000011    0.00000002   -0.00001649
     atom    6 type  2   force =     0.00000003    0.00000000    0.00000503
     atom    7 type  1   force =    -0.00000021   -0.00000001   -0.00006030

     DFT-D3 dispersion contribution to forces:
     atom    1 type  2   force =    -0.00000019    0.00000003   -0.00262634
     atom    2 type  2   force =    -0.00000007    0.00000009   -0.00179149
     atom    3 type  2   force =    -0.00000004   -0.00000005    0.00228600
     atom    4 type  2   force =    -0.00000013   -0.00000006   -0.00147694
     atom    5 type  2   force =     0.00000000    0.00000001    0.00284484
     atom    6 type  2   force =    -0.00000004   -0.00000003    0.00353807
     atom    7 type  1   force =     0.00000046    0.00000002   -0.00277414

     Total force =     0.001398     Total SCF correction =     0.000153
     SCF correction compared to forces is large: reduce conv_thr to get better values


     Computing stress (Cartesian axis) and pressure


     negative rho (up, down):  1.313E-05 0.000E+00
          total   stress  (Ry/bohr**3)                   (kbar)     P=      -15.67
  -0.00015529  -0.00000000  -0.00000002          -22.84       -0.00       -0.00
  -0.00000000  -0.00011326  -0.00000001           -0.00      -16.66       -0.00
  -0.00000002  -0.00000001  -0.00005104           -0.00       -0.00       -7.51

     Energy error            =      5.8E-06 Ry
     Gradient error          =      9.0E-04 Ry/Bohr

     bfgs converged in  22 scf cycles and  21 bfgs steps
     (criteria: energy <  1.0E-04 Ry, force <  1.0E-03 Ry/Bohr)

     End of BFGS Geometry Optimization

     Final energy             =    -520.5636146665 Ry

     File ./Ag_mp-2646971_100_bridge_0/Ag_mp-2646971_100_bridge_0.bfgs deleted, as requested
Begin final coordinates

ATOMIC_POSITIONS (angstrom)
Ag            2.4835245562        2.4834845225       16.5323196524
Ag            0.8279004709        0.8278440580       18.1435015566
Ag            2.4834985723        2.4834626767       13.3263924224
Ag            0.8278497433        0.8278160920       14.9156918224
Ag            2.4834962066        2.4834621640       10.1240205826
Ag            0.8278408279        0.8278062425       11.6992397273
Li            0.8275681576        2.4835343431       20.1436317667
End final coordinates



     Writing all to output data dir ./Ag_mp-2646971_100_bridge_0/Ag_mp-2646971_100_bridge_0.save/

     init_run     :      3.97s CPU      4.81s WALL (       1 calls)
     electrons    :     75.58s CPU     85.50s WALL (      22 calls)
     update_pot   :      4.90s CPU      5.09s WALL (      21 calls)
     forces       :      4.27s CPU      4.91s WALL (      22 calls)
     force_dftd3  :      0.16s CPU      0.38s WALL (      22 calls)
     stress       :     15.57s CPU     15.95s WALL (      22 calls)
     stres_dftd3  :      0.10s CPU      0.16s WALL (      22 calls)

     Called by init_run:
     wfcinit      :      0.36s CPU      0.76s WALL (       1 calls)
     potinit      :      0.86s CPU      0.87s WALL (       1 calls)
     hinit0       :      2.65s CPU      3.03s WALL (       1 calls)

     Called by electrons:
     c_bands      :     62.91s CPU     68.79s WALL (     178 calls)
     sum_band     :      9.42s CPU     10.53s WALL (     178 calls)
     v_of_rho     :      1.36s CPU      1.86s WALL (     180 calls)
     newd         :      1.21s CPU      1.29s WALL (     180 calls)
     mix_rho      :      0.17s CPU      0.18s WALL (     178 calls)
     energy_dftd3 :      0.04s CPU      0.04s WALL (      22 calls)

     Called by c_bands:
     init_us_2    :      0.38s CPU      0.41s WALL (    3609 calls)
     init_us_2:cp :      0.37s CPU      0.41s WALL (    3609 calls)
     cegterg      :     57.09s CPU     61.01s WALL (    1602 calls)

     Called by *egterg:
     cdiaghg      :     12.43s CPU     12.55s WALL (    5896 calls)
     h_psi        :     36.76s CPU     40.11s WALL (    6274 calls)
     s_psi        :      1.33s CPU      1.37s WALL (    6274 calls)
     g_psi        :      0.12s CPU      0.12s WALL (    4663 calls)

     Called by h_psi:
     h_psi:calbec :      2.60s CPU      3.17s WALL (    6274 calls)
     vloc_psi     :     32.78s CPU     35.47s WALL (    6274 calls)
     add_vuspsi   :      1.29s CPU      1.37s WALL (    6274 calls)

     General routines
     calbec       :      4.76s CPU      5.57s WALL (    8866 calls)
     fft          :      4.31s CPU      4.97s WALL (    2887 calls)
     ffts         :      0.96s CPU      1.38s WALL (     358 calls)
     fftw         :     36.04s CPU     38.97s WALL (  418520 calls)
     interpolate  :      0.88s CPU      1.13s WALL (     180 calls)

     Parallel routines

     PWSCF        :   1m45.06s CPU   1m58.28s WALL


   This run was terminated on:   5:31:16  24Jul2025            

=------------------------------------------------------------------------------=
   JOB DONE.
=------------------------------------------------------------------------------=
