
     Program PWSCF v.7.2 starts on 24Jul2025 at  6:37:13 

     This program is part of the open-source Quantum ESPRESSO suite
     for quantum simulation of materials; please cite
         "P. Giannozzi et al., J. Phys.:Condens. Matter 21 395502 (2009);
         "P. Giannozzi et al., J. Phys.:Condens. Matter 29 465901 (2017);
         "P. Giannozzi et al., J. Chem. Phys. 152 154105 (2020);
          URL http://www.quantum-espresso.org", 
     in publications or presentations arising from this work. More details at
     http://www.quantum-espresso.org/quote

     Parallel version (MPI & OpenMP), running on     192 processor cores
     Number of MPI processes:               192
     Threads/MPI process:                     1

     MPI processes distributed on     3 nodes
     243964 MiB available memory on the printing compute node when the environment starts

     Reading input from Ag_mp-2646971_111_ontop_1.in

     Current dimensions of program PWSCF are:
     Max number of different atomic species (ntypx) = 10
     Max number of k-points (npk) =  40000
     Max angular momentum in pseudopotentials (lmaxx) =  4
     Message from routine iosys:
     restart disabled: needed files not found

     K-points division:     npool     =       4
     R & G space division:  proc/nbgrp/npool/nimage =      48
     Subspace diagonalization in iterative solution of the eigenvalue problem:
     a serial algorithm will be used


     Parallelization info
     --------------------
     sticks:   dense  smooth     PW     G-vecs:    dense   smooth      PW
     Min          56      24      7                13764     4000     628
     Max          57      25      8                13787     4039     653
     Sum        2713    1189    349               661159   192697   30755

     Using Slab Decomposition



     bravais-lattice index     =            0
     lattice parameter (alat)  =       8.8494  a.u.
     unit-cell volume          =    3499.1022 (a.u.)^3
     number of atoms/cell      =           10
     number of atomic types    =            2
     number of electrons       =       102.00
     number of Kohn-Sham states=           61
     kinetic-energy cutoff     =      55.0000  Ry
     charge density cutoff     =     500.0000  Ry
     scf convergence threshold =      1.0E-06
     mixing beta               =       0.3000
     number of iterations used =            8  plain     mixing
     energy convergence thresh.=      1.0E-04
     force convergence thresh. =      1.0E-03
     Exchange-correlation= PBE
                           (   1   4   3   4   0   0   0)
     nstep                     =          500


     celldm(1)=   8.849392  celldm(2)=   0.000000  celldm(3)=   0.000000
     celldm(4)=   0.000000  celldm(5)=   0.000000  celldm(6)=   0.000000

     crystal axes: (cart. coord. in units of alat)
               a(1) = (   0.997419   0.000000  -0.071796 )  
               a(2) = (   0.501294   0.865277   0.000000 )  
               a(3) = (   0.000000   0.000000   5.850369 )  

     reciprocal axes: (cart. coord. in units 2 pi/alat)
               b(1) = (  1.002587 -0.580844  0.000000 )  
               b(2) = ( -0.000000  1.155699  0.000000 )  
               b(3) = (  0.012304 -0.007128  0.170929 )  


     PseudoPot. # 1 for Li read from file:
     /home/ecastro/trabajo_final/pseudos/Li.pbe-s-rrkjus_psl.1.0.0.UPF
     MD5 check sum: 9f98d2529904d60b716d33989e9bc179
     Pseudo is Ultrasoft, Zval =  3.0
     Generated using &quot;atomic&quot; code by A. Dal Corso  v.6.3MaX
     Using radial grid of 1017 points,  4 beta functions with: 
                l(1) =   0
                l(2) =   0
                l(3) =   1
                l(4) =   1
     Q(r) pseudized with 0 coefficients 


     PseudoPot. # 2 for Ag read from file:
     /home/ecastro/trabajo_final/pseudos/Ag.pbe-n-rrkjus_psl.1.0.0.UPF
     MD5 check sum: 81cdf87bacf708300839c66ee23ce017
     Pseudo is Ultrasoft + core correction, Zval = 11.0
     Generated using &quot;atomic&quot; code by A. Dal Corso  v.6.2.2
     Using radial grid of 1237 points,  6 beta functions with: 
                l(1) =   0
                l(2) =   0
                l(3) =   1
                l(4) =   1
                l(5) =   2
                l(6) =   2
     Q(r) pseudized with 0 coefficients 


     atomic species   valence    mass     pseudopotential
        Li             3.00     6.94100     Li( 1.00)
        Ag            11.00   107.86820     Ag( 1.00)

     No symmetry found



   Cartesian axes

     site n.     atom                  positions (alat units)
         1           Ag  tau(   1) = (   0.9602196   0.6957065   3.4973174  )
         2           Ag  tau(   2) = (   0.9708482   0.1116992   3.6449910  )
         3           Ag  tau(   3) = (   0.9293743   0.1357298   3.0687760  )
         4           Ag  tau(   4) = (   0.4474382   0.4149353   3.3377079  )
         5           Ag  tau(   5) = (   0.4022408   0.4411217   2.7097969  )
         6           Ag  tau(   6) = (   0.9164544   0.7210643   2.8892865  )
         7           Ag  tau(   7) = (   0.8725266   0.7465137   2.2790220  )
         8           Ag  tau(   8) = (   0.8854465   0.1611791   2.4585116  )
         9           Ag  tau(   9) = (   0.3583130   0.4665710   2.0995325  )
        10           Li  tau(  10) = (   1.0014847   0.0939501   4.0720771  )

     --------------------------------------------
     DFT-D3 Dispersion Correction (no 3-body):
     --------------------------------------------
       Reference C6 values for interpolation: 

         atom   Coordination number   C6
         Li         0.000          2326.89
         Li         0.987           170.64
         Ag         0.000           853.49
         Ag         0.968           537.23

       Values used:

         atom   Coordination number  R0_AB[au]  C6      C8
         Ag         6.420            3.147    537.23  47741.54
         Ag         5.462            3.147    537.23  47741.54
         Ag         7.553            3.147    537.23  47741.54
         Ag         6.929            3.147    537.23  47741.54
         Ag         7.391            3.147    537.23  47741.54
         Ag         7.407            3.147    537.23  47741.54
         Ag         6.027            3.147    537.23  47741.54
         Ag         6.732            3.147    537.23  47741.54
         Ag         3.768            3.147    537.23  47741.54
         Li         1.207            3.303    173.46  13112.86

         Molecular C6 ( Ry / a.u.^6 ) =     48933.25


     number of k points=    34  Methfessel-Paxton smearing, width (Ry)=  0.0300
                       cart. coord. in units 2pi/alat
        k(    1) = (   0.0000000   0.0000000   0.0000000), wk =   0.0312500
        k(    2) = (   0.0000000   0.1444624   0.0000000), wk =   0.0625000
        k(    3) = (   0.0000000   0.2889247   0.0000000), wk =   0.0625000
        k(    4) = (   0.0000000   0.4333871   0.0000000), wk =   0.0625000
        k(    5) = (   0.0000000  -0.5778495   0.0000000), wk =   0.0312500
        k(    6) = (   0.1253234  -0.0726054   0.0000000), wk =   0.0625000
        k(    7) = (   0.1253234   0.0718569   0.0000000), wk =   0.0625000
        k(    8) = (   0.1253234   0.2163193   0.0000000), wk =   0.0625000
        k(    9) = (   0.1253234   0.3607817   0.0000000), wk =   0.0625000
        k(   10) = (   0.1253234  -0.6504549   0.0000000), wk =   0.0625000
        k(   11) = (   0.1253234  -0.5059926   0.0000000), wk =   0.0625000
        k(   12) = (   0.1253234  -0.3615302   0.0000000), wk =   0.0625000
        k(   13) = (   0.1253234  -0.2170678   0.0000000), wk =   0.0625000
        k(   14) = (   0.2506468  -0.1452109   0.0000000), wk =   0.0625000
        k(   15) = (   0.2506468  -0.0007485   0.0000000), wk =   0.0625000
        k(   16) = (   0.2506468   0.1437139   0.0000000), wk =   0.0625000
        k(   17) = (   0.2506468   0.2881762   0.0000000), wk =   0.0625000
        k(   18) = (   0.2506468  -0.7230604   0.0000000), wk =   0.0625000
        k(   19) = (   0.2506468  -0.5785980   0.0000000), wk =   0.0625000
        k(   20) = (   0.2506468  -0.4341356   0.0000000), wk =   0.0625000
        k(   21) = (   0.2506468  -0.2896733   0.0000000), wk =   0.0625000
        k(   22) = (   0.3759702  -0.2178163   0.0000000), wk =   0.0625000
        k(   23) = (   0.3759702  -0.0733540   0.0000000), wk =   0.0625000
        k(   24) = (   0.3759702   0.0711084   0.0000000), wk =   0.0625000
        k(   25) = (   0.3759702   0.2155708   0.0000000), wk =   0.0625000
        k(   26) = (   0.3759702  -0.7956658   0.0000000), wk =   0.0625000
        k(   27) = (   0.3759702  -0.6512034   0.0000000), wk =   0.0625000
        k(   28) = (   0.3759702  -0.5067411   0.0000000), wk =   0.0625000
        k(   29) = (   0.3759702  -0.3622787   0.0000000), wk =   0.0625000
        k(   30) = (  -0.5012937   0.2904218   0.0000000), wk =   0.0312500
        k(   31) = (  -0.5012937   0.4348841   0.0000000), wk =   0.0625000
        k(   32) = (  -0.5012937   0.5793465   0.0000000), wk =   0.0625000
        k(   33) = (  -0.5012937   0.7238089   0.0000000), wk =   0.0625000
        k(   34) = (  -0.5012937  -0.2874277   0.0000000), wk =   0.0312500

     Dense  grid:   661159 G-vectors     FFT dimensions: (  64,  64, 375)

     Smooth grid:   192697 G-vectors     FFT dimensions: (  45,  45, 250)

     Estimated max dynamical RAM per process >      29.11 MB

     Estimated total dynamical RAM >       4.98 GB
     Cannot read rho : file not found

     Initial potential from superposition of free atoms

     starting charge     101.9918, renormalised to     102.0000

     negative rho (up, down):  7.398E-05 0.000E+00
     Message from routine qexsd_readschema :
     xml data file ./Ag_mp-2646971_111_ontop_1/Ag_mp-2646971_111_ontop_1.save/data-fi
     Cannot read wfcs: file not found
     Starting wfcs are   86 randomized atomic wfcs

     total cpu time spent up to now is        3.9 secs

     per-process dynamical memory:   181.9 Mb

     Self-consistent Calculation

     iteration #  1     ecut=    55.00 Ry     beta= 0.30
     Davidson diagonalization with overlap
     c_bands:  1 eigenvalues not converged
     c_bands:  1 eigenvalues not converged
     c_bands:  2 eigenvalues not converged
     c_bands:  1 eigenvalues not converged
     c_bands:  1 eigenvalues not converged
     c_bands:  1 eigenvalues not converged
     c_bands:  2 eigenvalues not converged
     c_bands:  2 eigenvalues not converged
     ethr =  1.00E-05,  avg # of iterations = 19.1

     negative rho (up, down):  6.073E-05 0.000E+00

     total cpu time spent up to now is        8.9 secs

     total energy              =    -773.18672879 Ry
     estimated scf accuracy    <       0.38921748 Ry

     iteration #  2     ecut=    55.00 Ry     beta= 0.30
     Davidson diagonalization with overlap
     ethr =  3.82E-04,  avg # of iterations =  8.7

     negative rho (up, down):  5.344E-05 0.000E+00

     total cpu time spent up to now is       10.4 secs

     total energy              =    -773.01302450 Ry
     estimated scf accuracy    <       3.26255179 Ry

     iteration #  3     ecut=    55.00 Ry     beta= 0.30
     Davidson diagonalization with overlap
     ethr =  3.82E-04,  avg # of iterations =  8.9

     negative rho (up, down):  5.697E-05 0.000E+00

     total cpu time spent up to now is       12.0 secs

     total energy              =    -773.24181715 Ry
     estimated scf accuracy    <       1.29500224 Ry

     iteration #  4     ecut=    55.00 Ry     beta= 0.30
     Davidson diagonalization with overlap
     ethr =  3.82E-04,  avg # of iterations =  1.9

     negative rho (up, down):  3.308E-05 0.000E+00

     total cpu time spent up to now is       13.0 secs

     total energy              =    -773.28205926 Ry
     estimated scf accuracy    <       0.10509224 Ry

     iteration #  5     ecut=    55.00 Ry     beta= 0.30
     Davidson diagonalization with overlap
     ethr =  1.03E-04,  avg # of iterations =  5.7

     negative rho (up, down):  3.676E-05 0.000E+00

     total cpu time spent up to now is       14.2 secs

     total energy              =    -773.28468770 Ry
     estimated scf accuracy    <       0.01279200 Ry

     iteration #  6     ecut=    55.00 Ry     beta= 0.30
     Davidson diagonalization with overlap
     ethr =  1.25E-05,  avg # of iterations = 11.1

     negative rho (up, down):  2.173E-05 0.000E+00

     total cpu time spent up to now is       15.9 secs

     total energy              =    -773.28596221 Ry
     estimated scf accuracy    <       0.00525339 Ry

     iteration #  7     ecut=    55.00 Ry     beta= 0.30
     Davidson diagonalization with overlap
     ethr =  5.15E-06,  avg # of iterations =  5.7

     negative rho (up, down):  2.504E-05 0.000E+00

     total cpu time spent up to now is       17.2 secs

     total energy              =    -773.28646777 Ry
     estimated scf accuracy    <       0.00122806 Ry

     iteration #  8     ecut=    55.00 Ry     beta= 0.30
     Davidson diagonalization with overlap
     ethr =  1.20E-06,  avg # of iterations =  3.0

     negative rho (up, down):  5.236E-05 0.000E+00

     total cpu time spent up to now is       18.2 secs

     total energy              =    -773.28661643 Ry
     estimated scf accuracy    <       0.00014557 Ry

     iteration #  9     ecut=    55.00 Ry     beta= 0.30
     Davidson diagonalization with overlap
     ethr =  1.43E-07,  avg # of iterations =  3.9

     negative rho (up, down):  4.608E-05 0.000E+00

     total cpu time spent up to now is       19.3 secs

     total energy              =    -773.28663435 Ry
     estimated scf accuracy    <       0.00000997 Ry

     iteration # 10     ecut=    55.00 Ry     beta= 0.30
     Davidson diagonalization with overlap
     ethr =  9.77E-09,  avg # of iterations =  5.3

     negative rho (up, down):  3.600E-05 0.000E+00

     total cpu time spent up to now is       20.5 secs

     total energy              =    -773.28663729 Ry
     estimated scf accuracy    <       0.00000223 Ry

     iteration # 11     ecut=    55.00 Ry     beta= 0.30
     Davidson diagonalization with overlap
     ethr =  2.18E-09,  avg # of iterations =  3.7

     negative rho (up, down):  1.885E-05 0.000E+00

     total cpu time spent up to now is       21.5 secs

     End of self-consistent calculation

          k = 0.0000 0.0000 0.0000 ( 24179 PWs)   bands (ev):

   -46.5645  -5.2045  -4.1774  -4.1175  -4.1174  -3.7901  -3.6816  -3.6816
    -3.4067  -3.4067  -3.3543  -3.3095  -3.3095  -3.1870  -3.1870  -3.1622
    -3.1446  -3.0699  -3.0699  -3.0126  -3.0126  -2.9643  -2.9642  -2.6069
    -2.5807  -2.5077  -2.5077  -2.2668  -2.2667  -2.1869  -1.9236  -1.8024
    -1.8023  -1.7626  -1.7626  -1.7007  -1.7007  -1.6497  -1.6497  -1.5992
    -1.5992  -1.5157  -1.5157  -1.4026  -1.3056  -1.3056  -1.1012  -1.1012
    -0.7556   0.7659   1.8610   3.3676   4.4004   5.2403   5.3437   6.0457
     6.0458   6.5316   6.6898   6.6899   6.7672

          k = 0.0000 0.1445 0.0000 ( 24156 PWs)   bands (ev):

   -46.5645  -5.0530  -4.1508  -4.0610  -4.0512  -3.8212  -3.6875  -3.6509
    -3.5556  -3.4532  -3.4521  -3.3693  -3.3134  -3.3036  -3.2014  -3.1264
    -3.0723  -3.0578  -2.9877  -2.9587  -2.8952  -2.8900  -2.8044  -2.5714
    -2.5049  -2.4570  -2.4486  -2.2463  -2.1991  -2.1683  -1.9153  -1.9034
    -1.8457  -1.7670  -1.7311  -1.7201  -1.6916  -1.6688  -1.6603  -1.6397
    -1.6394  -1.5293  -1.5262  -1.4318  -1.3705  -1.3185  -1.1714  -1.0799
    -0.6661   0.8826   1.9887   3.4814   4.2968   4.5395   5.0191   5.1075
     5.3787   5.4823   5.9055   6.1284   6.2568

          k = 0.0000 0.2889 0.0000 ( 24139 PWs)   bands (ev):

   -46.5645  -4.6398  -4.1054  -3.9594  -3.9098  -3.8447  -3.7319  -3.6793
    -3.5971  -3.5564  -3.4699  -3.4392  -3.3285  -3.3023  -3.1623  -3.1047
    -3.0730  -3.0419  -2.9729  -2.8805  -2.7845  -2.7724  -2.6240  -2.4376
    -2.3661  -2.3551  -2.3192  -2.1760  -2.1250  -2.0816  -1.9782  -1.9209
    -1.8527  -1.8469  -1.8111  -1.7932  -1.7281  -1.7196  -1.6595  -1.6544
    -1.6168  -1.5664  -1.5251  -1.4874  -1.3984  -1.3605  -1.3092  -1.0395
    -0.3455   1.2533   2.1866   2.3986   3.1865   3.7698   3.8026   4.5055
     4.9359   5.0005   5.6374   5.7627   5.8955

          k = 0.0000 0.4334 0.0000 ( 24088 PWs)   bands (ev):

   -46.5644  -4.2191  -4.0870  -4.0133  -3.7806  -3.7464  -3.7172  -3.6077
    -3.5500  -3.4784  -3.4282  -3.4196  -3.2904  -3.2757  -3.1859  -3.1222
    -3.0518  -3.0355  -2.9397  -2.8278  -2.8172  -2.6998  -2.6145  -2.4773
    -2.3907  -2.3585  -2.2847  -2.2463  -2.1168  -2.0461  -1.9951  -1.9447
    -1.8773  -1.8177  -1.7939  -1.7862  -1.7220  -1.7040  -1.6457  -1.6065
    -1.5968  -1.5282  -1.5049  -1.3731  -1.3119  -1.2822  -1.1088  -1.0025
     0.2812   0.4687   1.3925   1.9278   2.8281   2.8759   3.0678   3.9919
     4.3528   4.5789   5.5122   5.7023   5.8050

          k = 0.0000-0.5778 0.0000 ( 24060 PWs)   bands (ev):

   -46.5644  -4.2040  -4.1241  -3.8730  -3.7626  -3.6952  -3.6460  -3.5091
    -3.5045  -3.4068  -3.3688  -3.3021  -3.2627  -3.2341  -3.2197  -3.2018
    -3.0733  -3.0248  -3.0186  -2.8420  -2.8337  -2.6671  -2.6143  -2.5202
    -2.5170  -2.4229  -2.2939  -2.2475  -2.0937  -2.0652  -2.0062  -1.9540
    -1.8532  -1.8244  -1.8115  -1.7947  -1.7287  -1.7094  -1.7040  -1.6006
    -1.5279  -1.4990  -1.3773  -1.2187  -1.1459  -0.9873  -0.9676  -0.8332
    -0.1594   0.0067   1.2887   1.6225   2.4527   2.6679   3.1439   3.9177
     4.0255   4.1182   5.4862   5.6897   5.9825

          k = 0.1253-0.0726 0.0000 ( 24146 PWs)   bands (ev):

   -46.5645  -5.0530  -4.1508  -4.0609  -4.0512  -3.8211  -3.6875  -3.6509
    -3.5555  -3.4532  -3.4521  -3.3693  -3.3134  -3.3036  -3.2014  -3.1264
    -3.0723  -3.0578  -2.9877  -2.9587  -2.8952  -2.8900  -2.8044  -2.5715
    -2.5049  -2.4570  -2.4486  -2.2463  -2.1991  -2.1683  -1.9153  -1.9034
    -1.8457  -1.7670  -1.7311  -1.7200  -1.6915  -1.6688  -1.6603  -1.6397
    -1.6393  -1.5293  -1.5262  -1.4318  -1.3705  -1.3185  -1.1714  -1.0799
    -0.6661   0.8826   1.9887   3.4814   4.2969   4.5401   5.0191   5.1080
     5.3572   5.5054   5.9055   6.1326   6.2619

          k = 0.1253 0.0719 0.0000 ( 24156 PWs)   bands (ev):

   -46.5645  -5.0530  -4.1508  -4.0610  -4.0512  -3.8212  -3.6875  -3.6509
    -3.5556  -3.4532  -3.4521  -3.3693  -3.3134  -3.3036  -3.2014  -3.1264
    -3.0723  -3.0578  -2.9877  -2.9587  -2.8952  -2.8900  -2.8044  -2.5714
    -2.5049  -2.4570  -2.4486  -2.2463  -2.1991  -2.1683  -1.9153  -1.9034
    -1.8457  -1.7670  -1.7311  -1.7201  -1.6916  -1.6688  -1.6603  -1.6397
    -1.6394  -1.5293  -1.5262  -1.4318  -1.3705  -1.3185  -1.1714  -1.0799
    -0.6661   0.8826   1.9887   3.4814   4.2968   4.5395   5.0191   5.1075
     5.3787   5.4823   5.9054   6.1283   6.2568

          k = 0.1253 0.2163 0.0000 ( 24149 PWs)   bands (ev):

   -46.5645  -4.7705  -4.1053  -3.9726  -3.9534  -3.8311  -3.7428  -3.6513
    -3.5930  -3.5661  -3.4975  -3.3724  -3.3378  -3.3219  -3.2740  -3.1292
    -3.0616  -2.9993  -2.9804  -2.9005  -2.8312  -2.6967  -2.5949  -2.4995
    -2.4135  -2.3773  -2.3232  -2.1954  -2.1439  -2.0861  -1.9816  -1.9487
    -1.8859  -1.8401  -1.8160  -1.7781  -1.7331  -1.6982  -1.6456  -1.6291
    -1.6064  -1.5685  -1.5291  -1.4915  -1.4459  -1.3493  -1.1723  -1.1089
    -0.4570   1.1293   2.2413   3.1867   3.2838   3.7138   4.1216   4.3266
     4.8160   5.4263   5.5452   5.6741   5.7873

          k = 0.1253 0.3608 0.0000 ( 24102 PWs)   bands (ev):

   -46.5645  -4.3269  -4.0691  -3.9606  -3.8283  -3.8054  -3.7421  -3.6621
    -3.6037  -3.5495  -3.4939  -3.4155  -3.3489  -3.2602  -3.1929  -3.1304
    -3.0945  -3.0129  -2.9468  -2.8545  -2.7045  -2.6432  -2.5282  -2.4200
    -2.3644  -2.2726  -2.2333  -2.1871  -2.1140  -2.0683  -1.9827  -1.9576
    -1.9314  -1.8889  -1.8248  -1.7910  -1.7593  -1.7352  -1.6974  -1.6408
    -1.6001  -1.5690  -1.4565  -1.4327  -1.4085  -1.2674  -1.2285  -1.0854
     0.0522   1.3038   1.6451   2.2366   2.4009   2.8272   3.4796   3.8642
     4.1416   4.9433   5.2214   5.4059   5.9860

          k = 0.1253-0.6505 0.0000 ( 24065 PWs)   bands (ev):

   -46.5644  -4.1526  -4.0793  -3.9161  -3.7883  -3.7021  -3.6671  -3.6006
    -3.5349  -3.5158  -3.4183  -3.4040  -3.3007  -3.2208  -3.1558  -3.1219
    -3.0672  -3.0046  -2.9055  -2.8286  -2.7881  -2.6665  -2.6033  -2.5258
    -2.3672  -2.2654  -2.2599  -2.2135  -2.1437  -2.0920  -1.9860  -1.9262
    -1.8991  -1.8448  -1.8259  -1.8038  -1.7560  -1.7252  -1.6954  -1.6601
    -1.5925  -1.3838  -1.3647  -1.3320  -1.2183  -1.1510  -1.0544  -0.6039
    -0.2676   0.6225   1.0574   1.7074   2.2045   2.5467   3.1732   3.4870
     3.7766   4.4397   4.8669   5.5044   6.0521

          k = 0.1253-0.5060 0.0000 ( 24070 PWs)   bands (ev):

   -46.5644  -4.1526  -4.0793  -3.9161  -3.7883  -3.7021  -3.6671  -3.6006
    -3.5349  -3.5158  -3.4183  -3.4040  -3.3007  -3.2208  -3.1558  -3.1219
    -3.0672  -3.0046  -2.9055  -2.8286  -2.7881  -2.6665  -2.6034  -2.5258
    -2.3672  -2.2654  -2.2600  -2.2135  -2.1437  -2.0920  -1.9860  -1.9262
    -1.8991  -1.8448  -1.8259  -1.8038  -1.7560  -1.7252  -1.6955  -1.6601
    -1.5925  -1.3838  -1.3647  -1.3320  -1.2183  -1.1510  -1.0544  -0.6039
    -0.2676   0.6225   1.0574   1.7074   2.2045   2.5467   3.1732   3.4870
     3.7765   4.4397   4.8669   5.5039   6.0523

          k = 0.1253-0.3615 0.0000 ( 24099 PWs)   bands (ev):

   -46.5645  -4.3269  -4.0692  -3.9605  -3.8283  -3.8054  -3.7421  -3.6621
    -3.6037  -3.5495  -3.4939  -3.4155  -3.3489  -3.2602  -3.1929  -3.1304
    -3.0945  -3.0128  -2.9468  -2.8545  -2.7045  -2.6432  -2.5283  -2.4200
    -2.3644  -2.2726  -2.2333  -2.1871  -2.1139  -2.0683  -1.9826  -1.9576
    -1.9314  -1.8889  -1.8248  -1.7910  -1.7593  -1.7352  -1.6974  -1.6408
    -1.6001  -1.5690  -1.4565  -1.4327  -1.4085  -1.2674  -1.2285  -1.0854
     0.0522   1.3038   1.6452   2.2366   2.4009   2.8272   3.4796   3.8642
     4.1416   4.9430   5.2215   5.4090   5.9803

          k = 0.1253-0.2171 0.0000 ( 24155 PWs)   bands (ev):

   -46.5645  -4.7705  -4.1053  -3.9727  -3.9534  -3.8311  -3.7428  -3.6513
    -3.5930  -3.5660  -3.4975  -3.3724  -3.3378  -3.3219  -3.2740  -3.1292
    -3.0615  -2.9994  -2.9804  -2.9005  -2.8312  -2.6966  -2.5949  -2.4995
    -2.4135  -2.3773  -2.3232  -2.1954  -2.1439  -2.0861  -1.9816  -1.9487
    -1.8858  -1.8402  -1.8160  -1.7781  -1.7331  -1.6982  -1.6456  -1.6291
    -1.6064  -1.5686  -1.5291  -1.4915  -1.4459  -1.3493  -1.1723  -1.1090
    -0.4570   1.1293   2.2413   3.1867   3.2838   3.7137   4.1216   4.3266
     4.8183   5.4249   5.5304   5.6530   5.8355

          k = 0.2506-0.1452 0.0000 ( 24164 PWs)   bands (ev):

   -46.5645  -4.6398  -4.1054  -3.9594  -3.9098  -3.8447  -3.7319  -3.6793
    -3.5971  -3.5565  -3.4700  -3.4392  -3.3286  -3.3023  -3.1624  -3.1048
    -3.0730  -3.0419  -2.9729  -2.8806  -2.7845  -2.7725  -2.6241  -2.4377
    -2.3661  -2.3551  -2.3193  -2.1760  -2.1250  -2.0816  -1.9782  -1.9209
    -1.8527  -1.8469  -1.8111  -1.7932  -1.7281  -1.7196  -1.6595  -1.6545
    -1.6168  -1.5664  -1.5252  -1.4874  -1.3984  -1.3605  -1.3092  -1.0396
    -0.3455   1.2532   2.1866   2.3986   3.1865   3.7698   3.8024   4.5053
     4.9410   5.0005   5.5755   5.8310   5.9076

          k = 0.2506-0.0007 0.0000 ( 24155 PWs)   bands (ev):

   -46.5645  -4.7705  -4.1053  -3.9726  -3.9534  -3.8311  -3.7428  -3.6513
    -3.5930  -3.5660  -3.4975  -3.3724  -3.3378  -3.3219  -3.2740  -3.1292
    -3.0615  -2.9994  -2.9804  -2.9005  -2.8312  -2.6966  -2.5949  -2.4995
    -2.4135  -2.3773  -2.3232  -2.1954  -2.1439  -2.0861  -1.9816  -1.9487
    -1.8858  -1.8402  -1.8160  -1.7781  -1.7331  -1.6982  -1.6456  -1.6291
    -1.6064  -1.5686  -1.5291  -1.4915  -1.4459  -1.3493  -1.1723  -1.1090
    -0.4570   1.1293   2.2413   3.1867   3.2838   3.7137   4.1216   4.3266
     4.8183   5.4249   5.5304   5.6530   5.8355

          k = 0.2506 0.1437 0.0000 ( 24139 PWs)   bands (ev):

   -46.5645  -4.6398  -4.1054  -3.9594  -3.9098  -3.8447  -3.7319  -3.6793
    -3.5971  -3.5564  -3.4699  -3.4392  -3.3285  -3.3023  -3.1623  -3.1047
    -3.0730  -3.0419  -2.9729  -2.8805  -2.7845  -2.7724  -2.6240  -2.4376
    -2.3661  -2.3551  -2.3192  -2.1760  -2.1250  -2.0816  -1.9782  -1.9209
    -1.8527  -1.8469  -1.8111  -1.7932  -1.7281  -1.7196  -1.6595  -1.6544
    -1.6168  -1.5664  -1.5251  -1.4874  -1.3984  -1.3605  -1.3092  -1.0395
    -0.3455   1.2533   2.1866   2.3986   3.1865   3.7698   3.8026   4.5055
     4.9360   5.0005   5.6376   5.7644   5.8937

          k = 0.2506 0.2882 0.0000 ( 24102 PWs)   bands (ev):

   -46.5645  -4.3269  -4.0691  -3.9606  -3.8283  -3.8054  -3.7421  -3.6621
    -3.6037  -3.5495  -3.4939  -3.4155  -3.3489  -3.2602  -3.1928  -3.1304
    -3.0945  -3.0129  -2.9468  -2.8545  -2.7045  -2.6432  -2.5282  -2.4200
    -2.3644  -2.2726  -2.2333  -2.1871  -2.1140  -2.0683  -1.9827  -1.9576
    -1.9314  -1.8889  -1.8248  -1.7910  -1.7593  -1.7352  -1.6974  -1.6408
    -1.6001  -1.5690  -1.4565  -1.4327  -1.4085  -1.2674  -1.2285  -1.0854
     0.0522   1.3038   1.6451   2.2366   2.4009   2.8272   3.4796   3.8642
     4.1416   4.9433   5.2214   5.4059   5.9861

          k = 0.2506-0.7231 0.0000 ( 24086 PWs)   bands (ev):

   -46.5644  -4.0997  -4.0168  -3.8829  -3.8580  -3.8216  -3.6978  -3.6565
    -3.5612  -3.5325  -3.4523  -3.3603  -3.3192  -3.2469  -3.1938  -3.1560
    -3.0492  -2.9881  -2.9752  -2.7350  -2.6367  -2.5959  -2.5387  -2.4802
    -2.3686  -2.2855  -2.1891  -2.1340  -2.0980  -2.0175  -1.9921  -1.9618
    -1.9168  -1.8740  -1.8620  -1.8264  -1.8076  -1.7386  -1.7240  -1.6382
    -1.5528  -1.5458  -1.3863  -1.2937  -1.2365  -1.1917  -1.1184  -0.7665
     0.5082   0.6156   0.8139   1.7272   1.8890   2.4056   3.3577   3.4952
     3.5415   4.3689   4.8010   4.9019   5.8979

          k = 0.2506-0.5786 0.0000 ( 24049 PWs)   bands (ev):

   -46.5644  -4.0788  -3.9927  -3.8890  -3.8385  -3.7747  -3.6762  -3.6238
    -3.5673  -3.5077  -3.4463  -3.3803  -3.3123  -3.2335  -3.1723  -3.1487
    -2.9881  -2.9740  -2.8706  -2.7645  -2.7105  -2.6760  -2.5766  -2.4966
    -2.3306  -2.2510  -2.1779  -2.1268  -2.0811  -2.0197  -1.9814  -1.9610
    -1.9338  -1.9174  -1.8581  -1.8417  -1.7926  -1.7505  -1.6496  -1.6030
    -1.4884  -1.3860  -1.2986  -1.1654  -1.1162  -1.0915  -0.9075  -0.7999
     0.0882   0.3683   0.4146   1.4451   2.0796   2.1373   3.1924   3.3034
     3.6165   4.3180   4.4927   4.5694   5.4153

          k = 0.2506-0.4341 0.0000 ( 24068 PWs)   bands (ev):

   -46.5644  -4.0997  -4.0167  -3.8829  -3.8580  -3.8216  -3.6978  -3.6565
    -3.5612  -3.5325  -3.4523  -3.3603  -3.3192  -3.2469  -3.1938  -3.1559
    -3.0492  -2.9880  -2.9752  -2.7350  -2.6367  -2.5959  -2.5387  -2.4802
    -2.3686  -2.2855  -2.1891  -2.1340  -2.0979  -2.0175  -1.9920  -1.9618
    -1.9169  -1.8740  -1.8620  -1.8264  -1.8076  -1.7386  -1.7240  -1.6382
    -1.5528  -1.5458  -1.3863  -1.2937  -1.2365  -1.1917  -1.1184  -0.7665
     0.5083   0.6156   0.8139   1.7272   1.8890   2.4057   3.3577   3.4952
     3.5416   4.3689   4.8009   4.9017   5.8978

          k = 0.2506-0.2897 0.0000 ( 24092 PWs)   bands (ev):

   -46.5644  -4.3269  -4.0692  -3.9605  -3.8283  -3.8054  -3.7421  -3.6621
    -3.6037  -3.5495  -3.4939  -3.4155  -3.3489  -3.2602  -3.1929  -3.1304
    -3.0945  -3.0128  -2.9468  -2.8545  -2.7045  -2.6432  -2.5282  -2.4200
    -2.3644  -2.2726  -2.2333  -2.1871  -2.1139  -2.0683  -1.9827  -1.9576
    -1.9314  -1.8889  -1.8248  -1.7910  -1.7593  -1.7352  -1.6974  -1.6408
    -1.6001  -1.5690  -1.4565  -1.4327  -1.4085  -1.2674  -1.2285  -1.0854
     0.0522   1.3038   1.6452   2.2367   2.4009   2.8272   3.4796   3.8642
     4.1414   4.9436   5.2226   5.4083   5.9511

          k = 0.3760-0.2178 0.0000 ( 24082 PWs)   bands (ev):

   -46.5644  -4.2191  -4.0870  -4.0133  -3.7806  -3.7464  -3.7172  -3.6077
    -3.5500  -3.4784  -3.4282  -3.4195  -3.2904  -3.2757  -3.1859  -3.1222
    -3.0517  -3.0356  -2.9397  -2.8278  -2.8172  -2.6998  -2.6146  -2.4773
    -2.3907  -2.3585  -2.2847  -2.2463  -2.1168  -2.0460  -1.9951  -1.9447
    -1.8773  -1.8177  -1.7939  -1.7862  -1.7220  -1.7040  -1.6457  -1.6065
    -1.5968  -1.5282  -1.5048  -1.3731  -1.3120  -1.2822  -1.1087  -1.0025
     0.2812   0.4687   1.3925   1.9279   2.8281   2.8759   3.0677   3.9918
     4.3528   4.5788   5.5165   5.7034   5.7966

          k = 0.3760-0.0734 0.0000 ( 24092 PWs)   bands (ev):

   -46.5644  -4.3269  -4.0692  -3.9605  -3.8283  -3.8054  -3.7421  -3.6621
    -3.6037  -3.5495  -3.4939  -3.4155  -3.3489  -3.2602  -3.1929  -3.1304
    -3.0945  -3.0128  -2.9468  -2.8545  -2.7045  -2.6432  -2.5282  -2.4200
    -2.3644  -2.2726  -2.2333  -2.1871  -2.1139  -2.0683  -1.9827  -1.9576
    -1.9314  -1.8889  -1.8248  -1.7910  -1.7593  -1.7352  -1.6974  -1.6408
    -1.6001  -1.5690  -1.4565  -1.4327  -1.4085  -1.2674  -1.2285  -1.0854
     0.0522   1.3038   1.6452   2.2367   2.4009   2.8272   3.4796   3.8642
     4.1414   4.9436   5.2226   5.4083   5.9509

          k = 0.3760 0.0711 0.0000 ( 24099 PWs)   bands (ev):

   -46.5645  -4.3269  -4.0692  -3.9605  -3.8283  -3.8054  -3.7421  -3.6621
    -3.6037  -3.5495  -3.4939  -3.4155  -3.3489  -3.2602  -3.1929  -3.1304
    -3.0945  -3.0128  -2.9468  -2.8545  -2.7045  -2.6432  -2.5283  -2.4200
    -2.3644  -2.2726  -2.2332  -2.1871  -2.1139  -2.0683  -1.9826  -1.9576
    -1.9314  -1.8889  -1.8248  -1.7910  -1.7593  -1.7352  -1.6974  -1.6408
    -1.6001  -1.5690  -1.4565  -1.4327  -1.4085  -1.2674  -1.2285  -1.0854
     0.0522   1.3038   1.6452   2.2366   2.4009   2.8272   3.4796   3.8642
     4.1416   4.9430   5.2215   5.4090   5.9802

          k = 0.3760 0.2156 0.0000 ( 24088 PWs)   bands (ev):

   -46.5644  -4.2191  -4.0870  -4.0133  -3.7806  -3.7464  -3.7172  -3.6077
    -3.5500  -3.4784  -3.4282  -3.4196  -3.2904  -3.2757  -3.1859  -3.1222
    -3.0518  -3.0355  -2.9397  -2.8278  -2.8172  -2.6998  -2.6146  -2.4773
    -2.3907  -2.3585  -2.2847  -2.2463  -2.1168  -2.0461  -1.9951  -1.9447
    -1.8773  -1.8177  -1.7940  -1.7862  -1.7220  -1.7040  -1.6457  -1.6065
    -1.5968  -1.5282  -1.5049  -1.3731  -1.3119  -1.2822  -1.1088  -1.0025
     0.2812   0.4687   1.3925   1.9278   2.8281   2.8759   3.0678   3.9919
     4.3528   4.5789   5.5122   5.7023   5.8050

          k = 0.3760-0.7957 0.0000 ( 24065 PWs)   bands (ev):

   -46.5644  -4.1526  -4.0793  -3.9161  -3.7883  -3.7021  -3.6671  -3.6006
    -3.5349  -3.5158  -3.4183  -3.4040  -3.3007  -3.2208  -3.1558  -3.1219
    -3.0672  -3.0046  -2.9055  -2.8286  -2.7881  -2.6665  -2.6033  -2.5258
    -2.3672  -2.2654  -2.2599  -2.2135  -2.1437  -2.0920  -1.9860  -1.9262
    -1.8991  -1.8448  -1.8259  -1.8038  -1.7560  -1.7252  -1.6954  -1.6601
    -1.5925  -1.3838  -1.3647  -1.3320  -1.2183  -1.1510  -1.0544  -0.6039
    -0.2676   0.6225   1.0574   1.7074   2.2045   2.5467   3.1732   3.4870
     3.7766   4.4397   4.8668   5.5044   6.0518

          k = 0.3760-0.6512 0.0000 ( 24049 PWs)   bands (ev):

   -46.5644  -4.0788  -3.9927  -3.8890  -3.8385  -3.7747  -3.6762  -3.6238
    -3.5673  -3.5077  -3.4463  -3.3803  -3.3123  -3.2335  -3.1723  -3.1487
    -2.9881  -2.9740  -2.8706  -2.7645  -2.7105  -2.6760  -2.5766  -2.4966
    -2.3306  -2.2510  -2.1779  -2.1268  -2.0811  -2.0197  -1.9814  -1.9610
    -1.9338  -1.9174  -1.8581  -1.8417  -1.7926  -1.7505  -1.6496  -1.6030
    -1.4884  -1.3860  -1.2986  -1.1654  -1.1162  -1.0915  -0.9075  -0.7999
     0.0882   0.3683   0.4146   1.4451   2.0796   2.1373   3.1924   3.3034
     3.6165   4.3180   4.4927   4.5694   5.4153

          k = 0.3760-0.5067 0.0000 ( 24032 PWs)   bands (ev):

   -46.5644  -4.0788  -3.9927  -3.8890  -3.8385  -3.7747  -3.6762  -3.6238
    -3.5673  -3.5077  -3.4462  -3.3803  -3.3123  -3.2335  -3.1723  -3.1487
    -2.9881  -2.9740  -2.8705  -2.7644  -2.7105  -2.6759  -2.5766  -2.4966
    -2.3306  -2.2510  -2.1779  -2.1268  -2.0811  -2.0197  -1.9813  -1.9610
    -1.9338  -1.9174  -1.8581  -1.8417  -1.7926  -1.7505  -1.6496  -1.6029
    -1.4884  -1.3859  -1.2986  -1.1654  -1.1162  -1.0915  -0.9075  -0.7999
     0.0882   0.3683   0.4146   1.4452   2.0796   2.1373   3.1924   3.3034
     3.6165   4.3179   4.4927   4.5695   5.4154

          k = 0.3760-0.3623 0.0000 ( 24075 PWs)   bands (ev):

   -46.5644  -4.1527  -4.0793  -3.9161  -3.7883  -3.7021  -3.6671  -3.6006
    -3.5349  -3.5158  -3.4183  -3.4040  -3.3007  -3.2208  -3.1558  -3.1220
    -3.0672  -3.0046  -2.9055  -2.8286  -2.7881  -2.6665  -2.6033  -2.5258
    -2.3672  -2.2654  -2.2600  -2.2135  -2.1437  -2.0920  -1.9860  -1.9262
    -1.8991  -1.8448  -1.8259  -1.8038  -1.7560  -1.7252  -1.6954  -1.6601
    -1.5925  -1.3838  -1.3647  -1.3320  -1.2184  -1.1511  -1.0544  -0.6039
    -0.2676   0.6225   1.0574   1.7074   2.2046   2.5466   3.1732   3.4870
     3.7765   4.4397   4.8668   5.5044   6.0555

          k =-0.5013 0.2904 0.0000 ( 24044 PWs)   bands (ev):

   -46.5644  -4.2040  -4.1241  -3.8730  -3.7626  -3.6952  -3.6460  -3.5090
    -3.5045  -3.4068  -3.3688  -3.3021  -3.2627  -3.2341  -3.2197  -3.2018
    -3.0733  -3.0247  -3.0186  -2.8420  -2.8337  -2.6671  -2.6143  -2.5203
    -2.5170  -2.4229  -2.2939  -2.2475  -2.0937  -2.0652  -2.0062  -1.9540
    -1.8533  -1.8244  -1.8115  -1.7947  -1.7287  -1.7094  -1.7040  -1.6006
    -1.5279  -1.4990  -1.3772  -1.2187  -1.1459  -0.9873  -0.9675  -0.8332
    -0.1594   0.0067   1.2887   1.6226   2.4527   2.6680   3.1439   3.9174
     4.0258   4.1182   5.4859   5.6898   5.9826

          k =-0.5013 0.4349 0.0000 ( 24075 PWs)   bands (ev):

   -46.5644  -4.1527  -4.0793  -3.9161  -3.7883  -3.7021  -3.6671  -3.6006
    -3.5349  -3.5158  -3.4183  -3.4040  -3.3007  -3.2208  -3.1558  -3.1220
    -3.0672  -3.0046  -2.9055  -2.8286  -2.7881  -2.6665  -2.6033  -2.5258
    -2.3672  -2.2654  -2.2600  -2.2135  -2.1437  -2.0920  -1.9860  -1.9262
    -1.8991  -1.8448  -1.8259  -1.8038  -1.7560  -1.7252  -1.6954  -1.6601
    -1.5925  -1.3838  -1.3647  -1.3320  -1.2184  -1.1511  -1.0544  -0.6039
    -0.2676   0.6225   1.0574   1.7074   2.2046   2.5466   3.1732   3.4870
     3.7765   4.4397   4.8668   5.5044   6.0555

          k =-0.5013 0.5793 0.0000 ( 24068 PWs)   bands (ev):

   -46.5644  -4.0997  -4.0167  -3.8829  -3.8580  -3.8216  -3.6978  -3.6565
    -3.5612  -3.5325  -3.4523  -3.3603  -3.3192  -3.2469  -3.1938  -3.1559
    -3.0492  -2.9880  -2.9752  -2.7350  -2.6367  -2.5959  -2.5387  -2.4802
    -2.3686  -2.2855  -2.1891  -2.1340  -2.0979  -2.0175  -1.9920  -1.9618
    -1.9169  -1.8740  -1.8620  -1.8264  -1.8076  -1.7386  -1.7240  -1.6382
    -1.5528  -1.5458  -1.3863  -1.2937  -1.2365  -1.1917  -1.1184  -0.7665
     0.5083   0.6156   0.8139   1.7272   1.8890   2.4057   3.3577   3.4952
     3.5416   4.3689   4.8009   4.9017   5.8979

          k =-0.5013 0.7238 0.0000 ( 24070 PWs)   bands (ev):

   -46.5644  -4.1526  -4.0793  -3.9161  -3.7883  -3.7021  -3.6671  -3.6006
    -3.5349  -3.5158  -3.4183  -3.4040  -3.3007  -3.2208  -3.1558  -3.1219
    -3.0672  -3.0046  -2.9055  -2.8286  -2.7881  -2.6665  -2.6034  -2.5258
    -2.3672  -2.2654  -2.2600  -2.2135  -2.1437  -2.0920  -1.9860  -1.9262
    -1.8991  -1.8448  -1.8259  -1.8038  -1.7560  -1.7252  -1.6955  -1.6601
    -1.5925  -1.3838  -1.3647  -1.3320  -1.2183  -1.1510  -1.0544  -0.6039
    -0.2676   0.6225   1.0574   1.7074   2.2045   2.5467   3.1732   3.4870
     3.7766   4.4397   4.8669   5.5040   6.0540

          k =-0.5013-0.2874 0.0000 ( 24060 PWs)   bands (ev):

   -46.5644  -4.2040  -4.1241  -3.8730  -3.7626  -3.6952  -3.6460  -3.5091
    -3.5045  -3.4068  -3.3688  -3.3021  -3.2627  -3.2341  -3.2197  -3.2018
    -3.0733  -3.0248  -3.0186  -2.8420  -2.8337  -2.6671  -2.6143  -2.5202
    -2.5170  -2.4229  -2.2939  -2.2475  -2.0936  -2.0652  -2.0062  -1.9540
    -1.8532  -1.8244  -1.8115  -1.7947  -1.7287  -1.7094  -1.7040  -1.6006
    -1.5279  -1.4990  -1.3773  -1.2187  -1.1459  -0.9873  -0.9676  -0.8332
    -0.1594   0.0067   1.2887   1.6225   2.4527   2.6679   3.1439   3.9177
     4.0255   4.1182   5.4862   5.6898   5.9826

     the Fermi energy is     1.7665 ev

!    total energy              =    -773.28663752 Ry
     estimated scf accuracy    <       0.00000063 Ry
     smearing contrib. (-TS)   =       0.00102637 Ry
     internal energy E=F+TS    =    -773.28766389 Ry

     The total energy is F=E-TS. E is the sum of the following terms:
     one-electron contribution =   -7527.40595759 Ry
     hartree contribution      =    3833.26462879 Ry
     xc contribution           =    -204.32139740 Ry
     ewald contribution        =    3125.40442695 Ry
     DFT-D3 Dispersion         =      -0.22936465 Ry

     convergence has been achieved in  11 iterations

     negative rho (up, down):  1.885E-05 0.000E+00

     Forces acting on atoms (cartesian axes, Ry/au):

     atom    1 type  2   force =     0.00070619   -0.00041467    0.00984744
     atom    2 type  2   force =    -0.00681493    0.00395273   -0.09512377
     atom    3 type  2   force =    -0.00151873    0.00088137   -0.02111126
     atom    4 type  2   force =     0.00010820   -0.00006121    0.00146569
     atom    5 type  2   force =     0.00016163   -0.00009505    0.00226741
     atom    6 type  2   force =     0.00008904   -0.00005222    0.00126137
     atom    7 type  2   force =     0.00017625   -0.00010132    0.00244207
     atom    8 type  2   force =    -0.00060392    0.00034968   -0.00842035
     atom    9 type  2   force =     0.00125189   -0.00072480    0.01738622
     atom   10 type  1   force =     0.00644438   -0.00373451    0.08998518
     The non-local contrib.  to forces
     atom    1 type  2   force =     0.00269900   -0.00156592    0.03761461
     atom    2 type  2   force =     0.01532154   -0.00887479    0.21323523
     atom    3 type  2   force =     0.00156065   -0.00090334    0.02169208
     atom    4 type  2   force =     0.00155888   -0.00090205    0.02165782
     atom    5 type  2   force =    -0.00072157    0.00042103   -0.01001504
     atom    6 type  2   force =     0.00099646   -0.00057890    0.01387069
     atom    7 type  2   force =    -0.00275174    0.00159583   -0.03824530
     atom    8 type  2   force =    -0.00272206    0.00157735   -0.03783939
     atom    9 type  2   force =    -0.01214926    0.00703872   -0.16876213
     atom   10 type  1   force =     0.00656997   -0.00380505    0.09155955
     The ionic contribution  to forces
     atom    1 type  2   force =     6.21919762   -3.60302463   86.40090002
     atom    2 type  2   force =     7.51029842   -4.35104972  104.32442743
     atom    3 type  2   force =     1.79583059   -1.04044174   24.94843436
     atom    4 type  2   force =     4.31791227   -2.50156417   59.98726599
     atom    5 type  2   force =    -2.40755481    1.39481015  -33.44684106
     atom    6 type  2   force =    -0.28737360    0.16649021   -3.99236026
     atom    7 type  2   force =    -6.68128081    3.87076376  -92.81931946
     atom    8 type  2   force =    -4.71841190    2.73358533  -65.55026961
     atom    9 type  2   force =    -8.17104681    4.73385172 -113.51581035
     atom   10 type  1   force =     2.42242903   -1.40342091   33.66357294
     The local contribution  to forces
     atom    1 type  2   force =    -6.22094794    3.60404151  -86.42533509
     atom    2 type  2   force =    -7.53308835    4.36425254 -104.64190436
     atom    3 type  2   force =    -1.79894210    1.04224506  -24.99169856
     atom    4 type  2   force =    -4.31922171    2.50232116  -60.00546728
     atom    5 type  2   force =     2.40822211   -1.39519430   33.45612751
     atom    6 type  2   force =     0.28642746   -0.16593900    3.97920169
     atom    7 type  2   force =     6.68387730   -3.87226821   92.85534558
     atom    8 type  2   force =     4.71999413   -2.73450111   65.57227570
     atom    9 type  2   force =     8.18412236   -4.74142541  113.69750203
     atom   10 type  1   force =    -2.42242355    1.40341721  -33.66332547
     The core correction contribution to forces
     atom    1 type  2   force =    -0.00023763    0.00013783   -0.00330258
     atom    2 type  2   force =     0.00073233   -0.00042436    0.01023654
     atom    3 type  2   force =     0.00018924   -0.00010955    0.00262813
     atom    4 type  2   force =    -0.00008639    0.00005005   -0.00120010
     atom    5 type  2   force =    -0.00004157    0.00002431   -0.00057800
     atom    6 type  2   force =     0.00001286   -0.00000736    0.00017791
     atom    7 type  2   force =     0.00023114   -0.00013387    0.00321014
     atom    8 type  2   force =     0.00021052   -0.00012193    0.00292642
     atom    9 type  2   force =     0.00031647   -0.00018333    0.00439853
     atom   10 type  1   force =     0.00000000    0.00000000    0.00000000
     The Hubbard contrib.    to forces
     atom    1 type  2   force =     0.00000000    0.00000000    0.00000000
     atom    2 type  2   force =     0.00000000    0.00000000    0.00000000
     atom    3 type  2   force =     0.00000000    0.00000000    0.00000000
     atom    4 type  2   force =     0.00000000    0.00000000    0.00000000
     atom    5 type  2   force =     0.00000000    0.00000000    0.00000000
     atom    6 type  2   force =     0.00000000    0.00000000    0.00000000
     atom    7 type  2   force =     0.00000000    0.00000000    0.00000000
     atom    8 type  2   force =     0.00000000    0.00000000    0.00000000
     atom    9 type  2   force =     0.00000000    0.00000000    0.00000000
     atom   10 type  1   force =     0.00000000    0.00000000    0.00000000
     The SCF correction term to forces
     atom    1 type  2   force =     0.00008817   -0.00005718    0.00125496
     atom    2 type  2   force =     0.00003728   -0.00001808    0.00049817
     atom    3 type  2   force =     0.00002235   -0.00001299    0.00032971
     atom    4 type  2   force =     0.00007456   -0.00004106    0.00101117
     atom    5 type  2   force =     0.00002098   -0.00001912    0.00029162
     atom    6 type  2   force =    -0.00000213   -0.00000087   -0.00001424
     atom    7 type  2   force =     0.00001493   -0.00000922    0.00026732
     atom    8 type  2   force =     0.00003570   -0.00002203    0.00046533
     atom    9 type  2   force =    -0.00002768    0.00001494   -0.00045020
     atom   10 type  1   force =     0.00004601   -0.00002824    0.00065027

     DFT-D3 dispersion contribution to forces:
     atom    1 type  2   force =    -0.00009115    0.00005275   -0.00125538
     atom    2 type  2   force =    -0.00011428    0.00006616   -0.00158768
     atom    3 type  2   force =    -0.00017760    0.00010296   -0.00246787
     atom    4 type  2   force =    -0.00012754    0.00007389   -0.00177283
     atom    5 type  2   force =     0.00023837   -0.00013809    0.00331148
     atom    6 type  2   force =     0.00002986   -0.00001728    0.00041468
     atom    7 type  2   force =     0.00008731   -0.00005058    0.00121289
     atom    8 type  2   force =     0.00029155   -0.00016891    0.00405030
     atom    9 type  2   force =     0.00003869   -0.00002241    0.00053743
     atom   10 type  1   force =    -0.00017520    0.00010150   -0.00244301

     Total force =     0.134909     Total SCF correction =     0.001995


     Computing stress (Cartesian axis) and pressure


     negative rho (up, down):  1.885E-05 0.000E+00
          total   stress  (Ry/bohr**3)                   (kbar)     P=      -13.53
  -0.00014745  -0.00000050   0.00001205          -21.69       -0.07        1.77
  -0.00000050  -0.00014802  -0.00000698           -0.07      -21.77       -1.03
   0.00001205  -0.00000698   0.00001948            1.77       -1.03        2.87


     BFGS Geometry Optimization
     Energy error            =      0.0E+00 Ry
     Gradient error          =      9.5E-02 Ry/Bohr

     number of scf cycles    =   1
     number of bfgs steps    =   0

     energy             new  =    -773.2866375152 Ry

     new trust radius        =       0.0954494625 bohr
     new conv_thr            =       0.0000010000 Ry


ATOMIC_POSITIONS (angstrom)
Ag            4.4969830148        3.2577021874       16.3827872991
Ag            4.5427756943        0.5251673228       17.0187789077
Ag            4.3513603146        0.6360748445       14.3595894512
Ag            2.0953640413        1.9430666732       15.6309168716
Ag            1.8837376005        2.0656771383       12.6908989669
Ag            4.2917083668        3.3766422101       13.5308975640
Ag            4.0860451876        3.4957928105       10.6737170662
Ag            4.1461350835        0.7549700673       11.5084998914
Ag            1.6786052152        2.1845204697        9.8410941989
Li            4.6932598008        0.4379822488       19.1167343496



     Writing config-only to output data dir ./Ag_mp-2646971_111_ontop_1/Ag_mp-2646971_111_ontop_1.save/
     NEW-OLD atomic charge density approx. for the potential

     negative rho (up, down):  2.311E-05 0.000E+00

     total cpu time spent up to now is       25.5 secs

     per-process dynamical memory:   196.9 Mb

     Self-consistent Calculation

     iteration #  1     ecut=    55.00 Ry     beta= 0.30
     Davidson diagonalization with overlap
     ethr =  1.00E-06,  avg # of iterations =  8.2

     negative rho (up, down):  2.079E-05 0.000E+00

     total cpu time spent up to now is       28.6 secs

     total energy              =    -773.30145871 Ry
     estimated scf accuracy    <       0.00049313 Ry

     iteration #  2     ecut=    55.00 Ry     beta= 0.30
     Davidson diagonalization with overlap
     ethr =  4.83E-07,  avg # of iterations =  2.1

     negative rho (up, down):  3.547E-05 0.000E+00

     total cpu time spent up to now is       29.5 secs

     total energy              =    -773.30136548 Ry
     estimated scf accuracy    <       0.00125265 Ry

     iteration #  3     ecut=    55.00 Ry     beta= 0.30
     Davidson diagonalization with overlap
     ethr =  4.83E-07,  avg # of iterations =  1.9

     negative rho (up, down):  2.491E-05 0.000E+00

     total cpu time spent up to now is       30.5 secs

     total energy              =    -773.30143583 Ry
     estimated scf accuracy    <       0.00191348 Ry

     iteration #  4     ecut=    55.00 Ry     beta= 0.30
     Davidson diagonalization with overlap
     ethr =  4.83E-07,  avg # of iterations =  1.1

     negative rho (up, down):  2.785E-05 0.000E+00

     total cpu time spent up to now is       31.4 secs

     total energy              =    -773.30150597 Ry
     estimated scf accuracy    <       0.00008050 Ry

     iteration #  5     ecut=    55.00 Ry     beta= 0.30
     Davidson diagonalization with overlap
     ethr =  7.89E-08,  avg # of iterations =  1.9

     negative rho (up, down):  1.953E-05 0.000E+00

     total cpu time spent up to now is       32.3 secs

     total energy              =    -773.30151548 Ry
     estimated scf accuracy    <       0.00002625 Ry

     iteration #  6     ecut=    55.00 Ry     beta= 0.30
     Davidson diagonalization with overlap
     ethr =  2.57E-08,  avg # of iterations =  1.9

     negative rho (up, down):  1.997E-05 0.000E+00

     total cpu time spent up to now is       33.3 secs

     total energy              =    -773.30151811 Ry
     estimated scf accuracy    <       0.00000388 Ry

     iteration #  7     ecut=    55.00 Ry     beta= 0.30
     Davidson diagonalization with overlap
     ethr =  3.80E-09,  avg # of iterations =  3.7

     negative rho (up, down):  1.875E-05 0.000E+00

     total cpu time spent up to now is       34.3 secs

     End of self-consistent calculation

          k = 0.0000 0.0000 0.0000 ( 24179 PWs)   bands (ev):

   -46.5652  -5.2259  -4.1981  -4.1343  -4.1343  -3.8001  -3.6844  -3.6843
    -3.4110  -3.4110  -3.3621  -3.3227  -3.3227  -3.1841  -3.1841  -3.1830
    -3.1444  -3.0756  -3.0755  -3.0063  -3.0063  -2.9697  -2.9696  -2.6218
    -2.5755  -2.5250  -2.5250  -2.1948  -2.1948  -2.1804  -1.9249  -1.8140
    -1.8140  -1.7760  -1.7760  -1.7150  -1.7150  -1.6615  -1.6614  -1.6083
    -1.6083  -1.5253  -1.5253  -1.3956  -1.3105  -1.3104  -1.1126  -1.1126
    -0.7563   0.7477   1.8263   3.3531   4.4038   5.2586   5.3571   6.0874
     6.0875   6.5432   6.6837   6.6837   6.7709

          k = 0.0000 0.1445 0.0000 ( 24156 PWs)   bands (ev):

   -46.5652  -5.0742  -4.1694  -4.0775  -4.0654  -3.8324  -3.6988  -3.6529
    -3.5717  -3.4640  -3.4628  -3.3688  -3.3195  -3.3039  -3.2161  -3.1196
    -3.0744  -3.0632  -2.9882  -2.9624  -2.8822  -2.8790  -2.8236  -2.5726
    -2.5120  -2.4637  -2.4603  -2.1898  -2.1651  -2.1416  -1.9176  -1.9136
    -1.8563  -1.7781  -1.7404  -1.7344  -1.7032  -1.6819  -1.6703  -1.6510
    -1.6464  -1.5377  -1.5372  -1.4318  -1.3706  -1.3221  -1.1823  -1.0908
    -0.6655   0.8645   1.9534   3.4662   4.2957   4.5416   5.0231   5.1202
     5.3951   5.4949   5.9251   6.1305   6.2466

          k = 0.0000 0.2889 0.0000 ( 24139 PWs)   bands (ev):

   -46.5652  -4.6599  -4.1213  -3.9641  -3.9246  -3.8627  -3.7474  -3.6959
    -3.6023  -3.5758  -3.4780  -3.4496  -3.3358  -3.3028  -3.1801  -3.1044
    -3.0763  -3.0211  -2.9737  -2.8754  -2.7868  -2.7625  -2.6174  -2.4520
    -2.3611  -2.3573  -2.3012  -2.1524  -2.1110  -2.0933  -1.9652  -1.9324
    -1.8564  -1.8560  -1.8145  -1.7964  -1.7376  -1.7336  -1.6684  -1.6588
    -1.6243  -1.5755  -1.5348  -1.4908  -1.4054  -1.3618  -1.3157  -1.0492
    -0.3432   1.2353   2.1780   2.3660   3.1884   3.7659   3.7829   4.5072
     4.9354   5.0114   5.6137   5.7778   5.8862

          k = 0.0000 0.4334 0.0000 ( 24088 PWs)   bands (ev):

   -46.5651  -4.2342  -4.1030  -4.0291  -3.7904  -3.7543  -3.7309  -3.6209
    -3.5630  -3.4980  -3.4357  -3.4338  -3.2970  -3.2855  -3.2026  -3.1278
    -3.0428  -3.0193  -2.9494  -2.8359  -2.8182  -2.6930  -2.6034  -2.4825
    -2.3945  -2.3505  -2.2622  -2.2268  -2.1125  -2.0493  -2.0013  -1.9474
    -1.8818  -1.8232  -1.7907  -1.7886  -1.7324  -1.7196  -1.6525  -1.6127
    -1.6025  -1.5259  -1.5063  -1.3770  -1.3113  -1.2877  -1.1185  -1.0117
     0.2827   0.4628   1.3880   1.9118   2.8202   2.8682   3.0367   3.9695
     4.3573   4.5241   5.5063   5.6988   5.7949

          k = 0.0000-0.5778 0.0000 ( 24060 PWs)   bands (ev):

   -46.5651  -4.2189  -4.1415  -3.8868  -3.7631  -3.6997  -3.6674  -3.5179
    -3.5179  -3.4218  -3.3809  -3.3177  -3.2693  -3.2509  -3.2310  -3.2082
    -3.0955  -3.0240  -2.9992  -2.8482  -2.8429  -2.6498  -2.6220  -2.5203
    -2.4983  -2.4315  -2.2619  -2.2267  -2.0833  -2.0709  -2.0083  -1.9637
    -1.8555  -1.8368  -1.8233  -1.7865  -1.7355  -1.7201  -1.7171  -1.6084
    -1.5204  -1.4940  -1.3862  -1.2143  -1.1474  -0.9941  -0.9773  -0.8343
    -0.1701   0.0033   1.2823   1.6297   2.4430   2.6493   3.1188   3.8598
     3.9836   4.1203   5.4859   5.6806   5.9767

          k = 0.1253-0.0726 0.0000 ( 24146 PWs)   bands (ev):

   -46.5652  -5.0742  -4.1694  -4.0775  -4.0654  -3.8324  -3.6988  -3.6529
    -3.5717  -3.4639  -3.4628  -3.3688  -3.3195  -3.3039  -3.2160  -3.1196
    -3.0744  -3.0632  -2.9882  -2.9624  -2.8822  -2.8790  -2.8236  -2.5726
    -2.5120  -2.4637  -2.4603  -2.1898  -2.1651  -2.1416  -1.9177  -1.9136
    -1.8563  -1.7781  -1.7404  -1.7344  -1.7032  -1.6819  -1.6703  -1.6510
    -1.6464  -1.5377  -1.5371  -1.4317  -1.3706  -1.3221  -1.1823  -1.0908
    -0.6655   0.8645   1.9534   3.4662   4.2958   4.5422   5.0231   5.1207
     5.3737   5.5180   5.9251   6.1348   6.2518

          k = 0.1253 0.0719 0.0000 ( 24156 PWs)   bands (ev):

   -46.5652  -5.0742  -4.1694  -4.0775  -4.0654  -3.8324  -3.6988  -3.6529
    -3.5717  -3.4640  -3.4628  -3.3688  -3.3195  -3.3039  -3.2161  -3.1196
    -3.0744  -3.0632  -2.9882  -2.9624  -2.8822  -2.8790  -2.8236  -2.5726
    -2.5120  -2.4637  -2.4603  -2.1898  -2.1651  -2.1416  -1.9176  -1.9136
    -1.8563  -1.7781  -1.7404  -1.7344  -1.7032  -1.6819  -1.6703  -1.6510
    -1.6464  -1.5377  -1.5372  -1.4318  -1.3706  -1.3221  -1.1823  -1.0908
    -0.6655   0.8645   1.9534   3.4662   4.2957   4.5416   5.0231   5.1202
     5.3951   5.4949   5.9251   6.1305   6.2466

          k = 0.1253 0.2163 0.0000 ( 24149 PWs)   bands (ev):

   -46.5652  -4.7911  -4.1215  -3.9861  -3.9615  -3.8480  -3.7604  -3.6620
    -3.6092  -3.5759  -3.5031  -3.3804  -3.3492  -3.3233  -3.2821  -3.1327
    -3.0650  -2.9993  -2.9686  -2.9008  -2.7989  -2.7046  -2.5985  -2.5018
    -2.4223  -2.3661  -2.3329  -2.1705  -2.1185  -2.0663  -1.9929  -1.9606
    -1.8884  -1.8429  -1.8235  -1.7887  -1.7421  -1.7093  -1.6536  -1.6398
    -1.6193  -1.5721  -1.5373  -1.4929  -1.4531  -1.3509  -1.1796  -1.1195
    -0.4551   1.1113   2.2054   3.1850   3.2770   3.6961   4.1280   4.3296
     4.8171   5.4202   5.5500   5.7005   5.7865

          k = 0.1253 0.3608 0.0000 ( 24102 PWs)   bands (ev):

   -46.5651  -4.3451  -4.0844  -3.9703  -3.8426  -3.8180  -3.7568  -3.6765
    -3.6204  -3.5589  -3.5072  -3.4268  -3.3582  -3.2677  -3.2025  -3.1302
    -3.0972  -2.9956  -2.9471  -2.8571  -2.6808  -2.6536  -2.5107  -2.4205
    -2.3636  -2.2645  -2.2350  -2.1948  -2.1069  -2.0614  -1.9840  -1.9611
    -1.9326  -1.8930  -1.8276  -1.7921  -1.7674  -1.7426  -1.7094  -1.6389
    -1.6060  -1.5734  -1.4642  -1.4418  -1.4108  -1.2741  -1.2327  -1.0949
     0.0539   1.2981   1.6269   2.2304   2.3964   2.7913   3.4813   3.8586
     4.1245   4.9273   5.1932   5.3999   5.9591

          k = 0.1253-0.6505 0.0000 ( 24065 PWs)   bands (ev):

   -46.5651  -4.1670  -4.0961  -3.9324  -3.7982  -3.7064  -3.6819  -3.6121
    -3.5509  -3.5301  -3.4287  -3.4182  -3.3100  -3.2343  -3.1619  -3.1206
    -3.0621  -3.0087  -2.9217  -2.8317  -2.7861  -2.6494  -2.5943  -2.5151
    -2.3688  -2.2662  -2.2532  -2.2081  -2.1434  -2.0819  -1.9903  -1.9270
    -1.9063  -1.8514  -1.8302  -1.8096  -1.7606  -1.7343  -1.6963  -1.6594
    -1.5931  -1.3822  -1.3682  -1.3346  -1.2199  -1.1554  -1.0636  -0.6107
    -0.2749   0.6191   1.0538   1.6982   2.2042   2.5279   3.1700   3.4596
     3.7353   4.3861   4.8659   5.4978   6.0144

          k = 0.1253-0.5060 0.0000 ( 24070 PWs)   bands (ev):

   -46.5651  -4.1670  -4.0961  -3.9324  -3.7982  -3.7064  -3.6819  -3.6121
    -3.5509  -3.5301  -3.4287  -3.4182  -3.3100  -3.2343  -3.1619  -3.1206
    -3.0621  -3.0087  -2.9217  -2.8317  -2.7861  -2.6494  -2.5943  -2.5151
    -2.3688  -2.2662  -2.2532  -2.2082  -2.1434  -2.0819  -1.9903  -1.9270
    -1.9062  -1.8513  -1.8302  -1.8096  -1.7605  -1.7343  -1.6963  -1.6595
    -1.5932  -1.3822  -1.3682  -1.3346  -1.2199  -1.1554  -1.0636  -0.6107
    -0.2749   0.6191   1.0538   1.6982   2.2042   2.5279   3.1700   3.4596
     3.7353   4.3861   4.8659   5.4974   6.0161

          k = 0.1253-0.3615 0.0000 ( 24099 PWs)   bands (ev):

   -46.5651  -4.3451  -4.0844  -3.9703  -3.8426  -3.8180  -3.7568  -3.6765
    -3.6204  -3.5590  -3.5072  -3.4268  -3.3582  -3.2677  -3.2025  -3.1302
    -3.0972  -2.9955  -2.9471  -2.8571  -2.6808  -2.6536  -2.5107  -2.4205
    -2.3636  -2.2645  -2.2350  -2.1947  -2.1069  -2.0614  -1.9840  -1.9610
    -1.9326  -1.8930  -1.8276  -1.7921  -1.7674  -1.7426  -1.7094  -1.6389
    -1.6060  -1.5733  -1.4642  -1.4418  -1.4108  -1.2741  -1.2327  -1.0949
     0.0539   1.2981   1.6270   2.2304   2.3964   2.7913   3.4813   3.8586
     4.1245   4.9270   5.1934   5.4026   5.9545

          k = 0.1253-0.2171 0.0000 ( 24155 PWs)   bands (ev):

   -46.5652  -4.7911  -4.1215  -3.9862  -3.9615  -3.8480  -3.7604  -3.6620
    -3.6092  -3.5759  -3.5031  -3.3804  -3.3492  -3.3233  -3.2820  -3.1327
    -3.0650  -2.9993  -2.9686  -2.9007  -2.7990  -2.7046  -2.5985  -2.5018
    -2.4223  -2.3661  -2.3329  -2.1705  -2.1185  -2.0663  -1.9929  -1.9606
    -1.8884  -1.8429  -1.8235  -1.7887  -1.7421  -1.7093  -1.6536  -1.6398
    -1.6193  -1.5721  -1.5373  -1.4929  -1.4531  -1.3509  -1.1797  -1.1195
    -0.4551   1.1113   2.2054   3.1850   3.2770   3.6960   4.1280   4.3296
     4.8192   5.4193   5.5372   5.6716   5.8403

          k = 0.2506-0.1452 0.0000 ( 24164 PWs)   bands (ev):

   -46.5652  -4.6599  -4.1213  -3.9641  -3.9246  -3.8627  -3.7474  -3.6959
    -3.6023  -3.5759  -3.4780  -3.4496  -3.3359  -3.3029  -3.1801  -3.1044
    -3.0764  -3.0211  -2.9737  -2.8754  -2.7868  -2.7626  -2.6174  -2.4520
    -2.3611  -2.3574  -2.3013  -2.1525  -2.1111  -2.0933  -1.9652  -1.9325
    -1.8564  -1.8560  -1.8145  -1.7964  -1.7376  -1.7337  -1.6685  -1.6588
    -1.6243  -1.5756  -1.5349  -1.4909  -1.4055  -1.3617  -1.3157  -1.0493
    -0.3433   1.2353   2.1780   2.3660   3.1884   3.7659   3.7827   4.5070
     4.9403   5.0114   5.5653   5.8258   5.8962

          k = 0.2506-0.0007 0.0000 ( 24155 PWs)   bands (ev):

   -46.5652  -4.7911  -4.1215  -3.9862  -3.9615  -3.8480  -3.7604  -3.6620
    -3.6092  -3.5759  -3.5031  -3.3804  -3.3492  -3.3233  -3.2820  -3.1327
    -3.0650  -2.9993  -2.9686  -2.9007  -2.7990  -2.7046  -2.5985  -2.5018
    -2.4223  -2.3661  -2.3329  -2.1705  -2.1185  -2.0663  -1.9929  -1.9606
    -1.8884  -1.8429  -1.8235  -1.7887  -1.7421  -1.7093  -1.6536  -1.6398
    -1.6193  -1.5721  -1.5373  -1.4929  -1.4531  -1.3509  -1.1797  -1.1195
    -0.4551   1.1113   2.2054   3.1850   3.2770   3.6960   4.1280   4.3296
     4.8192   5.4193   5.5371   5.6716   5.8403

          k = 0.2506 0.1437 0.0000 ( 24139 PWs)   bands (ev):

   -46.5652  -4.6599  -4.1213  -3.9641  -3.9246  -3.8627  -3.7474  -3.6959
    -3.6023  -3.5758  -3.4780  -3.4496  -3.3359  -3.3028  -3.1801  -3.1044
    -3.0763  -3.0211  -2.9737  -2.8754  -2.7868  -2.7625  -2.6174  -2.4520
    -2.3611  -2.3573  -2.3012  -2.1524  -2.1110  -2.0933  -1.9652  -1.9324
    -1.8564  -1.8560  -1.8145  -1.7964  -1.7376  -1.7336  -1.6684  -1.6588
    -1.6243  -1.5755  -1.5348  -1.4908  -1.4054  -1.3618  -1.3157  -1.0492
    -0.3432   1.2353   2.1780   2.3660   3.1884   3.7659   3.7829   4.5072
     4.9354   5.0114   5.6138   5.7768   5.8834

          k = 0.2506 0.2882 0.0000 ( 24102 PWs)   bands (ev):

   -46.5651  -4.3451  -4.0844  -3.9703  -3.8426  -3.8180  -3.7568  -3.6765
    -3.6204  -3.5590  -3.5072  -3.4268  -3.3582  -3.2677  -3.2025  -3.1302
    -3.0972  -2.9956  -2.9471  -2.8571  -2.6808  -2.6536  -2.5107  -2.4205
    -2.3636  -2.2645  -2.2350  -2.1948  -2.1069  -2.0614  -1.9840  -1.9611
    -1.9326  -1.8930  -1.8276  -1.7921  -1.7674  -1.7426  -1.7094  -1.6389
    -1.6060  -1.5734  -1.4642  -1.4418  -1.4108  -1.2741  -1.2327  -1.0949
     0.0539   1.2981   1.6269   2.2304   2.3964   2.7913   3.4813   3.8586
     4.1245   4.9273   5.1932   5.3999   5.9592

          k = 0.2506-0.7231 0.0000 ( 24086 PWs)   bands (ev):

   -46.5651  -4.1142  -4.0323  -3.8975  -3.8766  -3.8370  -3.7090  -3.6649
    -3.5728  -3.5437  -3.4594  -3.3748  -3.3320  -3.2556  -3.2000  -3.1603
    -3.0617  -2.9840  -2.9639  -2.7286  -2.6166  -2.6088  -2.5134  -2.4692
    -2.3776  -2.2895  -2.2015  -2.1396  -2.1039  -2.0170  -1.9897  -1.9528
    -1.9034  -1.8802  -1.8703  -1.8326  -1.8039  -1.7490  -1.7263  -1.6415
    -1.5569  -1.5512  -1.3813  -1.2953  -1.2374  -1.2009  -1.1257  -0.7770
     0.5050   0.6052   0.8112   1.7250   1.8814   2.3866   3.3278   3.4988
     3.5285   4.3429   4.7684   4.8372   5.8639

          k = 0.2506-0.5786 0.0000 ( 24049 PWs)   bands (ev):

   -46.5651  -4.0916  -4.0156  -3.9062  -3.8541  -3.7817  -3.6862  -3.6340
    -3.5786  -3.5235  -3.4548  -3.3869  -3.3161  -3.2508  -3.1773  -3.1510
    -3.0035  -2.9764  -2.8899  -2.7559  -2.7053  -2.6178  -2.5675  -2.4941
    -2.3354  -2.2637  -2.1873  -2.1380  -2.0846  -2.0140  -1.9866  -1.9595
    -1.9352  -1.9126  -1.8636  -1.8364  -1.8005  -1.7599  -1.6510  -1.6052
    -1.4734  -1.3838  -1.3071  -1.1608  -1.1263  -1.0971  -0.9178  -0.8021
     0.0790   0.3629   0.4034   1.4395   2.0781   2.1347   3.1733   3.2956
     3.5892   4.2709   4.4527   4.5321   5.3723

          k = 0.2506-0.4341 0.0000 ( 24068 PWs)   bands (ev):

   -46.5651  -4.1142  -4.0323  -3.8975  -3.8766  -3.8370  -3.7090  -3.6648
    -3.5727  -3.5437  -3.4594  -3.3748  -3.3320  -3.2556  -3.1999  -3.1603
    -3.0617  -2.9840  -2.9639  -2.7286  -2.6165  -2.6088  -2.5133  -2.4693
    -2.3776  -2.2894  -2.2015  -2.1396  -2.1038  -2.0169  -1.9896  -1.9528
    -1.9034  -1.8802  -1.8702  -1.8325  -1.8039  -1.7490  -1.7263  -1.6415
    -1.5568  -1.5512  -1.3813  -1.2953  -1.2374  -1.2009  -1.1257  -0.7770
     0.5050   0.6053   0.8112   1.7250   1.8814   2.3866   3.3278   3.4988
     3.5285   4.3429   4.7683   4.8371   5.8634

          k = 0.2506-0.2897 0.0000 ( 24092 PWs)   bands (ev):

   -46.5651  -4.3451  -4.0844  -3.9703  -3.8426  -3.8180  -3.7568  -3.6765
    -3.6204  -3.5589  -3.5072  -3.4267  -3.3582  -3.2677  -3.2025  -3.1302
    -3.0972  -2.9955  -2.9471  -2.8571  -2.6808  -2.6536  -2.5107  -2.4205
    -2.3636  -2.2645  -2.2350  -2.1947  -2.1069  -2.0614  -1.9840  -1.9611
    -1.9326  -1.8930  -1.8276  -1.7921  -1.7674  -1.7426  -1.7094  -1.6389
    -1.6060  -1.5733  -1.4642  -1.4418  -1.4108  -1.2741  -1.2327  -1.0949
     0.0539   1.2981   1.6270   2.2305   2.3964   2.7913   3.4813   3.8586
     4.1244   4.9276   5.1938   5.4029   5.9327

          k = 0.3760-0.2178 0.0000 ( 24082 PWs)   bands (ev):

   -46.5651  -4.2342  -4.1029  -4.0291  -3.7904  -3.7543  -3.7309  -3.6209
    -3.5630  -3.4980  -3.4357  -3.4338  -3.2970  -3.2856  -3.2027  -3.1278
    -3.0428  -3.0193  -2.9494  -2.8359  -2.8182  -2.6930  -2.6034  -2.4825
    -2.3944  -2.3505  -2.2622  -2.2268  -2.1125  -2.0493  -2.0013  -1.9474
    -1.8817  -1.8231  -1.7907  -1.7886  -1.7324  -1.7196  -1.6526  -1.6127
    -1.6025  -1.5259  -1.5062  -1.3770  -1.3113  -1.2877  -1.1184  -1.0117
     0.2827   0.4628   1.3880   1.9118   2.8202   2.8682   3.0366   3.9694
     4.3573   4.5240   5.5102   5.7002   5.7871

          k = 0.3760-0.0734 0.0000 ( 24092 PWs)   bands (ev):

   -46.5651  -4.3451  -4.0844  -3.9703  -3.8426  -3.8180  -3.7568  -3.6765
    -3.6204  -3.5589  -3.5072  -3.4267  -3.3582  -3.2677  -3.2025  -3.1302
    -3.0972  -2.9955  -2.9471  -2.8571  -2.6808  -2.6536  -2.5107  -2.4205
    -2.3636  -2.2645  -2.2350  -2.1947  -2.1069  -2.0613  -1.9840  -1.9611
    -1.9326  -1.8930  -1.8276  -1.7921  -1.7674  -1.7426  -1.7094  -1.6389
    -1.6060  -1.5733  -1.4642  -1.4418  -1.4108  -1.2741  -1.2327  -1.0949
     0.0539   1.2981   1.6270   2.2305   2.3964   2.7913   3.4813   3.8586
     4.1244   4.9276   5.1938   5.4029   5.9328

          k = 0.3760 0.0711 0.0000 ( 24099 PWs)   bands (ev):

   -46.5651  -4.3451  -4.0844  -3.9703  -3.8426  -3.8180  -3.7568  -3.6765
    -3.6204  -3.5590  -3.5072  -3.4268  -3.3582  -3.2677  -3.2025  -3.1302
    -3.0972  -2.9955  -2.9471  -2.8571  -2.6808  -2.6536  -2.5107  -2.4205
    -2.3636  -2.2645  -2.2350  -2.1947  -2.1069  -2.0614  -1.9840  -1.9610
    -1.9326  -1.8930  -1.8276  -1.7921  -1.7674  -1.7426  -1.7094  -1.6389
    -1.6060  -1.5733  -1.4642  -1.4418  -1.4108  -1.2741  -1.2327  -1.0949
     0.0539   1.2981   1.6270   2.2304   2.3964   2.7913   3.4813   3.8586
     4.1245   4.9270   5.1934   5.4026   5.9545

          k = 0.3760 0.2156 0.0000 ( 24088 PWs)   bands (ev):

   -46.5651  -4.2342  -4.1030  -4.0291  -3.7904  -3.7543  -3.7309  -3.6209
    -3.5630  -3.4980  -3.4357  -3.4338  -3.2970  -3.2855  -3.2026  -3.1278
    -3.0428  -3.0193  -2.9494  -2.8359  -2.8182  -2.6930  -2.6034  -2.4825
    -2.3945  -2.3505  -2.2621  -2.2268  -2.1125  -2.0493  -2.0013  -1.9474
    -1.8818  -1.8231  -1.7907  -1.7886  -1.7324  -1.7196  -1.6525  -1.6127
    -1.6025  -1.5259  -1.5063  -1.3770  -1.3113  -1.2877  -1.1185  -1.0117
     0.2827   0.4628   1.3880   1.9118   2.8202   2.8682   3.0367   3.9695
     4.3573   4.5241   5.5063   5.6988   5.7949

          k = 0.3760-0.7957 0.0000 ( 24065 PWs)   bands (ev):

   -46.5651  -4.1670  -4.0961  -3.9324  -3.7982  -3.7064  -3.6819  -3.6121
    -3.5509  -3.5301  -3.4287  -3.4182  -3.3100  -3.2343  -3.1619  -3.1206
    -3.0621  -3.0087  -2.9217  -2.8317  -2.7861  -2.6494  -2.5943  -2.5151
    -2.3688  -2.2662  -2.2532  -2.2081  -2.1434  -2.0819  -1.9903  -1.9270
    -1.9063  -1.8514  -1.8302  -1.8096  -1.7606  -1.7343  -1.6963  -1.6594
    -1.5931  -1.3822  -1.3682  -1.3346  -1.2199  -1.1554  -1.0636  -0.6107
    -0.2749   0.6191   1.0538   1.6982   2.2042   2.5279   3.1700   3.4596
     3.7353   4.3861   4.8659   5.4978   6.0154

          k = 0.3760-0.6512 0.0000 ( 24049 PWs)   bands (ev):

   -46.5651  -4.0916  -4.0156  -3.9062  -3.8541  -3.7817  -3.6862  -3.6340
    -3.5786  -3.5235  -3.4548  -3.3869  -3.3160  -3.2508  -3.1773  -3.1510
    -3.0035  -2.9764  -2.8899  -2.7559  -2.7053  -2.6178  -2.5675  -2.4941
    -2.3354  -2.2637  -2.1873  -2.1380  -2.0846  -2.0140  -1.9866  -1.9595
    -1.9352  -1.9126  -1.8636  -1.8364  -1.8005  -1.7599  -1.6510  -1.6052
    -1.4734  -1.3838  -1.3071  -1.1608  -1.1263  -1.0971  -0.9178  -0.8021
     0.0790   0.3629   0.4034   1.4395   2.0781   2.1347   3.1733   3.2956
     3.5892   4.2709   4.4527   4.5321   5.3723

          k = 0.3760-0.5067 0.0000 ( 24032 PWs)   bands (ev):

   -46.5650  -4.0916  -4.0155  -3.9062  -3.8541  -3.7816  -3.6862  -3.6340
    -3.5786  -3.5234  -3.4548  -3.3869  -3.3160  -3.2508  -3.1773  -3.1510
    -3.0034  -2.9764  -2.8899  -2.7559  -2.7053  -2.6177  -2.5675  -2.4941
    -2.3354  -2.2637  -2.1872  -2.1379  -2.0846  -2.0140  -1.9866  -1.9595
    -1.9352  -1.9126  -1.8636  -1.8364  -1.8004  -1.7598  -1.6510  -1.6052
    -1.4734  -1.3838  -1.3071  -1.1608  -1.1263  -1.0971  -0.9178  -0.8022
     0.0790   0.3629   0.4034   1.4395   2.0781   2.1347   3.1734   3.2956
     3.5892   4.2707   4.4528   4.5321   5.3724

          k = 0.3760-0.3623 0.0000 ( 24075 PWs)   bands (ev):

   -46.5651  -4.1671  -4.0960  -3.9324  -3.7982  -3.7064  -3.6819  -3.6121
    -3.5509  -3.5301  -3.4287  -3.4182  -3.3100  -3.2343  -3.1619  -3.1207
    -3.0621  -3.0087  -2.9217  -2.8317  -2.7861  -2.6494  -2.5943  -2.5151
    -2.3688  -2.2662  -2.2532  -2.2082  -2.1434  -2.0819  -1.9903  -1.9270
    -1.9063  -1.8513  -1.8302  -1.8096  -1.7605  -1.7343  -1.6963  -1.6595
    -1.5932  -1.3822  -1.3683  -1.3346  -1.2199  -1.1554  -1.0636  -0.6107
    -0.2749   0.6191   1.0538   1.6982   2.2043   2.5278   3.1700   3.4596
     3.7352   4.3860   4.8658   5.4976   6.0126

          k =-0.5013 0.2904 0.0000 ( 24044 PWs)   bands (ev):

   -46.5651  -4.2189  -4.1415  -3.8868  -3.7631  -3.6996  -3.6674  -3.5179
    -3.5178  -3.4218  -3.3809  -3.3177  -3.2693  -3.2509  -3.2310  -3.2082
    -3.0955  -3.0241  -2.9992  -2.8482  -2.8429  -2.6498  -2.6219  -2.5203
    -2.4983  -2.4315  -2.2619  -2.2267  -2.0834  -2.0708  -2.0082  -1.9636
    -1.8555  -1.8368  -1.8233  -1.7865  -1.7355  -1.7202  -1.7171  -1.6084
    -1.5204  -1.4940  -1.3862  -1.2143  -1.1474  -0.9940  -0.9772  -0.8343
    -0.1701   0.0033   1.2823   1.6297   2.4430   2.6494   3.1187   3.8594
     3.9838   4.1203   5.4855   5.6805   5.9767

          k =-0.5013 0.4349 0.0000 ( 24075 PWs)   bands (ev):

   -46.5651  -4.1671  -4.0960  -3.9324  -3.7982  -3.7064  -3.6819  -3.6121
    -3.5509  -3.5301  -3.4287  -3.4182  -3.3100  -3.2343  -3.1619  -3.1207
    -3.0621  -3.0087  -2.9217  -2.8317  -2.7861  -2.6494  -2.5943  -2.5151
    -2.3688  -2.2662  -2.2532  -2.2082  -2.1434  -2.0819  -1.9903  -1.9270
    -1.9063  -1.8513  -1.8302  -1.8096  -1.7606  -1.7343  -1.6963  -1.6595
    -1.5932  -1.3822  -1.3683  -1.3346  -1.2199  -1.1554  -1.0636  -0.6107
    -0.2749   0.6191   1.0538   1.6982   2.2043   2.5278   3.1700   3.4596
     3.7352   4.3860   4.8658   5.4977   6.0126

          k =-0.5013 0.5793 0.0000 ( 24068 PWs)   bands (ev):

   -46.5651  -4.1142  -4.0323  -3.8975  -3.8766  -3.8370  -3.7090  -3.6648
    -3.5727  -3.5437  -3.4594  -3.3748  -3.3320  -3.2556  -3.1999  -3.1603
    -3.0617  -2.9840  -2.9639  -2.7286  -2.6165  -2.6088  -2.5133  -2.4693
    -2.3776  -2.2895  -2.2015  -2.1396  -2.1038  -2.0169  -1.9896  -1.9528
    -1.9034  -1.8802  -1.8702  -1.8325  -1.8039  -1.7490  -1.7263  -1.6415
    -1.5568  -1.5512  -1.3813  -1.2953  -1.2374  -1.2009  -1.1257  -0.7770
     0.5050   0.6053   0.8112   1.7250   1.8814   2.3866   3.3278   3.4988
     3.5285   4.3429   4.7683   4.8371   5.8634

          k =-0.5013 0.7238 0.0000 ( 24070 PWs)   bands (ev):

   -46.5651  -4.1670  -4.0961  -3.9324  -3.7982  -3.7064  -3.6819  -3.6121
    -3.5509  -3.5301  -3.4287  -3.4182  -3.3100  -3.2343  -3.1619  -3.1206
    -3.0621  -3.0087  -2.9217  -2.8317  -2.7861  -2.6494  -2.5943  -2.5151
    -2.3688  -2.2662  -2.2532  -2.2081  -2.1434  -2.0819  -1.9903  -1.9270
    -1.9062  -1.8513  -1.8302  -1.8096  -1.7605  -1.7343  -1.6963  -1.6595
    -1.5932  -1.3822  -1.3682  -1.3346  -1.2199  -1.1554  -1.0636  -0.6107
    -0.2749   0.6191   1.0538   1.6982   2.2042   2.5279   3.1700   3.4596
     3.7353   4.3861   4.8659   5.4974   6.0137

          k =-0.5013-0.2874 0.0000 ( 24060 PWs)   bands (ev):

   -46.5651  -4.2189  -4.1415  -3.8868  -3.7631  -3.6997  -3.6674  -3.5179
    -3.5179  -3.4218  -3.3809  -3.3177  -3.2693  -3.2509  -3.2310  -3.2082
    -3.0955  -3.0240  -2.9992  -2.8482  -2.8429  -2.6498  -2.6220  -2.5203
    -2.4983  -2.4315  -2.2619  -2.2267  -2.0833  -2.0709  -2.0083  -1.9637
    -1.8555  -1.8367  -1.8233  -1.7865  -1.7355  -1.7201  -1.7171  -1.6084
    -1.5204  -1.4940  -1.3862  -1.2143  -1.1474  -0.9941  -0.9773  -0.8343
    -0.1701   0.0033   1.2823   1.6297   2.4430   2.6493   3.1188   3.8598
     3.9836   4.1203   5.4859   5.6806   5.9767

     the Fermi energy is     1.7553 ev

!    total energy              =    -773.30151862 Ry
     estimated scf accuracy    <       0.00000069 Ry
     smearing contrib. (-TS)   =       0.00098115 Ry
     internal energy E=F+TS    =    -773.30249977 Ry

     The total energy is F=E-TS. E is the sum of the following terms:
     one-electron contribution =   -7543.97183509 Ry
     hartree contribution      =    3841.51441559 Ry
     xc contribution           =    -204.31405360 Ry
     ewald contribution        =    3133.69831325 Ry
     DFT-D3 Dispersion         =      -0.22933992 Ry

     convergence has been achieved in   7 iterations

     negative rho (up, down):  1.875E-05 0.000E+00

     Forces acting on atoms (cartesian axes, Ry/au):

     atom    1 type  2   force =     0.00064557   -0.00037166    0.00888949
     atom    2 type  2   force =    -0.00412996    0.00238767   -0.05760595
     atom    3 type  2   force =    -0.00187561    0.00108481   -0.02602099
     atom    4 type  2   force =     0.00006688   -0.00003812    0.00090880
     atom    5 type  2   force =     0.00021275   -0.00012279    0.00293316
     atom    6 type  2   force =     0.00012525   -0.00007374    0.00173222
     atom    7 type  2   force =     0.00015572   -0.00009023    0.00214567
     atom    8 type  2   force =    -0.00061960    0.00036016   -0.00860232
     atom    9 type  2   force =     0.00120013   -0.00069534    0.01667806
     atom   10 type  1   force =     0.00421886   -0.00244075    0.05894186
     The non-local contrib.  to forces
     atom    1 type  2   force =     0.00269139   -0.00155602    0.03736343
     atom    2 type  2   force =     0.01214253   -0.00703730    0.16902459
     atom    3 type  2   force =     0.00146624   -0.00085283    0.02045493
     atom    4 type  2   force =     0.00138101   -0.00079903    0.01917495
     atom    5 type  2   force =    -0.00073821    0.00042731   -0.01025846
     atom    6 type  2   force =     0.00106594   -0.00061855    0.01480673
     atom    7 type  2   force =    -0.00272873    0.00158071   -0.03791834
     atom    8 type  2   force =    -0.00266522    0.00154439   -0.03702499
     atom    9 type  2   force =    -0.01216997    0.00704922   -0.16904704
     atom   10 type  1   force =     0.00617709   -0.00357637    0.08609960
     The ionic contribution  to forces
     atom    1 type  2   force =     6.26326091   -3.62849597   87.01123187
     atom    2 type  2   force =     7.52414817   -4.35910384  104.51984646
     atom    3 type  2   force =     1.76935498   -1.02511902   24.58117200
     atom    4 type  2   force =     4.33756986   -2.51297035   60.26007258
     atom    5 type  2   force =    -2.40309515    1.39223397  -33.38504181
     atom    6 type  2   force =    -0.28009787    0.16228412   -3.89153816
     atom    7 type  2   force =    -6.68824412    3.87479317  -92.91611501
     atom    8 type  2   force =    -4.73312195    2.74210594  -65.75434270
     atom    9 type  2   force =    -8.17666833    4.73710995 -113.59395329
     atom   10 type  1   force =     2.38689351   -1.38283797   33.16866806
     The local contribution  to forces
     atom    1 type  2   force =    -6.26506729    3.62954218  -87.03639098
     atom    2 type  2   force =    -7.54063061    4.36865347 -104.74950644
     atom    3 type  2   force =    -1.77282234    1.02712604  -24.62937289
     atom    4 type  2   force =    -4.33877110    2.51366549  -60.27675417
     atom    5 type  2   force =     2.40380520   -1.39264512   33.39492303
     atom    6 type  2   force =     0.27905476   -0.16167859    3.87703087
     atom    7 type  2   force =     6.69087615   -3.87631787   92.95269268
     atom    8 type  2   force =     4.73467930   -2.74300839   65.77596990
     atom    9 type  2   force =     8.18973184   -4.74467919  113.77543720
     atom   10 type  1   force =    -2.38867461    1.38387039  -33.19335018
     The core correction contribution to forces
     atom    1 type  2   force =    -0.00023769    0.00013752   -0.00329729
     atom    2 type  2   force =     0.00043053   -0.00024941    0.00602755
     atom    3 type  2   force =     0.00022408   -0.00012985    0.00311243
     atom    4 type  2   force =    -0.00008097    0.00004693   -0.00112534
     atom    5 type  2   force =    -0.00004583    0.00002657   -0.00063618
     atom    6 type  2   force =     0.00000947   -0.00000542    0.00013166
     atom    7 type  2   force =     0.00023272   -0.00013476    0.00323312
     atom    8 type  2   force =     0.00021413   -0.00012408    0.00297334
     atom    9 type  2   force =     0.00032546   -0.00018857    0.00452142
     atom   10 type  1   force =     0.00000000    0.00000000    0.00000000
     The Hubbard contrib.    to forces
     atom    1 type  2   force =     0.00000000    0.00000000    0.00000000
     atom    2 type  2   force =     0.00000000    0.00000000    0.00000000
     atom    3 type  2   force =     0.00000000    0.00000000    0.00000000
     atom    4 type  2   force =     0.00000000    0.00000000    0.00000000
     atom    5 type  2   force =     0.00000000    0.00000000    0.00000000
     atom    6 type  2   force =     0.00000000    0.00000000    0.00000000
     atom    7 type  2   force =     0.00000000    0.00000000    0.00000000
     atom    8 type  2   force =     0.00000000    0.00000000    0.00000000
     atom    9 type  2   force =     0.00000000    0.00000000    0.00000000
     atom   10 type  1   force =     0.00000000    0.00000000    0.00000000
     The SCF correction term to forces
     atom    1 type  2   force =     0.00007089   -0.00004232    0.00099016
     atom    2 type  2   force =    -0.00007410    0.00003895   -0.00095033
     atom    3 type  2   force =     0.00008404   -0.00004636    0.00116020
     atom    4 type  2   force =     0.00008624   -0.00005058    0.00119302
     atom    5 type  2   force =     0.00004473   -0.00002625    0.00059452
     atom    6 type  2   force =     0.00005872   -0.00003644    0.00083614
     atom    7 type  2   force =    -0.00006902    0.00003898   -0.00096899
     atom    8 type  2   force =    -0.00001636    0.00000965   -0.00020286
     atom    9 type  2   force =    -0.00006403    0.00003846   -0.00089716
     atom   10 type  1   force =     0.00000368   -0.00000250    0.00005551

     DFT-D3 dispersion contribution to forces:
     atom    1 type  2   force =    -0.00007264    0.00004199   -0.00099717
     atom    2 type  2   force =    -0.00014647    0.00008484   -0.00203724
     atom    3 type  2   force =    -0.00018260    0.00010587   -0.00253713
     atom    4 type  2   force =    -0.00011815    0.00006846   -0.00164171
     atom    5 type  2   force =     0.00024203   -0.00014022    0.00336259
     atom    6 type  2   force =     0.00003423   -0.00001981    0.00047550
     atom    7 type  2   force =     0.00008873   -0.00005140    0.00123275
     atom    8 type  2   force =     0.00029050   -0.00016830    0.00403553
     atom    9 type  2   force =     0.00004517   -0.00002617    0.00062746
     atom   10 type  1   force =    -0.00018081    0.00010475   -0.00252059

     Total force =     0.089287     Total SCF correction =     0.002747


     Computing stress (Cartesian axis) and pressure


     negative rho (up, down):  1.875E-05 0.000E+00
          total   stress  (Ry/bohr**3)                   (kbar)     P=      -14.43
  -0.00014591  -0.00000043   0.00001039          -21.46       -0.06        1.53
  -0.00000043  -0.00014641  -0.00000602           -0.06      -21.54       -0.89
   0.00001039  -0.00000602  -0.00000202            1.53       -0.89       -0.30

     Energy error            =      1.5E-02 Ry
     Gradient error          =      5.9E-02 Ry/Bohr

     number of scf cycles    =   2
     number of bfgs steps    =   1

     energy             old  =    -773.2866375152 Ry
     energy             new  =    -773.3015186151 Ry

     CASE: energy            _new < energy            _old

     new trust radius        =       0.1049944087 bohr
     new conv_thr            =       0.0000005894 Ry


ATOMIC_POSITIONS (angstrom)
Ag            4.4975808483        3.2573577592       16.3910232897
Ag            4.5388801451        0.5274198649       16.9644405189
Ag            4.3496398581        0.6370700105       14.3357196513
Ag            2.0954270594        1.9430307694       15.6317730410
Ag            1.8839324269        2.0655646389       12.6935861688
Ag            4.2918228734        3.3765747997       13.5324821259
Ag            4.0861895747        3.4957091689       10.6757070170
Ag            4.1455635830        0.7553022303       11.5005642139
Ag            1.6797147223        2.1838776481        9.8565125526
Li            4.6972232282        0.4356890827       19.1721059875



     Writing config-only to output data dir ./Ag_mp-2646971_111_ontop_1/Ag_mp-2646971_111_ontop_1.save/
     NEW-OLD atomic charge density approx. for the potential

     negative rho (up, down):  2.381E-05 0.000E+00

     total cpu time spent up to now is       38.2 secs

     per-process dynamical memory:   198.5 Mb

     Self-consistent Calculation

     iteration #  1     ecut=    55.00 Ry     beta= 0.30
     Davidson diagonalization with overlap
     ethr =  1.00E-06,  avg # of iterations =  9.8

     negative rho (up, down):  2.108E-05 0.000E+00

     total cpu time spent up to now is       41.7 secs

     total energy              =    -773.31249545 Ry
     estimated scf accuracy    <       0.00058490 Ry

     iteration #  2     ecut=    55.00 Ry     beta= 0.30
     Davidson diagonalization with overlap
     ethr =  5.73E-07,  avg # of iterations =  2.6

     negative rho (up, down):  2.390E-05 0.000E+00

     total cpu time spent up to now is       42.9 secs

     total energy              =    -773.31248996 Ry
     estimated scf accuracy    <       0.00027776 Ry

     iteration #  3     ecut=    55.00 Ry     beta= 0.30
     Davidson diagonalization with overlap
     ethr =  2.72E-07,  avg # of iterations =  2.6

     negative rho (up, down):  3.150E-05 0.000E+00

     total cpu time spent up to now is       43.9 secs

     total energy              =    -773.31242017 Ry
     estimated scf accuracy    <       0.00280645 Ry

     iteration #  4     ecut=    55.00 Ry     beta= 0.30
     Davidson diagonalization with overlap
     ethr =  2.72E-07,  avg # of iterations =  1.6

     negative rho (up, down):  3.763E-05 0.000E+00

     total cpu time spent up to now is       44.8 secs

     total energy              =    -773.31253511 Ry
     estimated scf accuracy    <       0.00038535 Ry

     iteration #  5     ecut=    55.00 Ry     beta= 0.30
     Davidson diagonalization with overlap
[...]
    -1.8409  -1.7493  -1.6885  -1.6556  -1.6088  -1.5148  -1.4525  -1.3694
    -0.2244   0.9772   1.7536   1.8929   2.0131   3.0405   3.2729   3.8418
     4.6854   4.8249   5.7410   6.0024   6.4352

          k = 0.3760-0.2178 0.0000 ( 24082 PWs)   bands (ev):

   -45.5665  -4.4522  -4.3973  -4.3003  -4.1274  -4.0627  -4.0263  -3.9396
    -3.8892  -3.8634  -3.7498  -3.7126  -3.6527  -3.5549  -3.5171  -3.4212
    -3.4181  -3.2543  -3.1841  -3.1361  -3.0823  -2.9814  -2.9660  -2.7517
    -2.7504  -2.6619  -2.5400  -2.5182  -2.4762  -2.4441  -2.3041  -2.2688
    -2.1648  -2.1599  -2.0722  -2.0469  -2.0233  -1.9480  -1.8942  -1.8768
    -1.8028  -1.7730  -1.6490  -1.5917  -1.4878  -1.4842  -1.3919  -1.3006
     0.0056   0.1422   1.0198   2.0069   2.3927   2.4899   3.8037   3.8503
     4.4759   5.4037   5.6540   5.7884   6.0327

          k = 0.3760-0.0734 0.0000 ( 24092 PWs)   bands (ev):

   -45.5665  -4.6279  -4.3656  -4.2489  -4.2118  -4.0796  -4.0163  -3.9855
    -3.9592  -3.8874  -3.8263  -3.7497  -3.6416  -3.5323  -3.4819  -3.4408
    -3.4040  -3.2841  -3.1289  -3.1155  -3.0257  -2.9420  -2.8255  -2.8004
    -2.7005  -2.6427  -2.5660  -2.5088  -2.4546  -2.3976  -2.3548  -2.3165
    -2.2183  -2.1832  -2.1208  -2.0533  -2.0056  -1.9551  -1.9248  -1.9016
    -1.8409  -1.7493  -1.6885  -1.6555  -1.6088  -1.5148  -1.4525  -1.3694
    -0.2244   0.9772   1.7536   1.8929   2.0131   3.0405   3.2729   3.8418
     4.6854   4.8249   5.7410   6.0024   6.4353

          k = 0.3760 0.0711 0.0000 ( 24099 PWs)   bands (ev):

   -45.5665  -4.6279  -4.3656  -4.2490  -4.2117  -4.0797  -4.0164  -3.9857
    -3.9590  -3.8874  -3.8263  -3.7497  -3.6416  -3.5325  -3.4819  -3.4407
    -3.4040  -3.2841  -3.1291  -3.1155  -3.0257  -2.9419  -2.8255  -2.8005
    -2.7003  -2.6428  -2.5662  -2.5086  -2.4547  -2.3973  -2.3547  -2.3166
    -2.2183  -2.1832  -2.1209  -2.0533  -2.0055  -1.9552  -1.9249  -1.9017
    -1.8409  -1.7493  -1.6884  -1.6555  -1.6089  -1.5147  -1.4526  -1.3693
    -0.2244   0.9771   1.7536   1.8929   2.0132   3.0405   3.2729   3.8418
     4.6854   4.8250   5.7305   6.0337   6.3634

          k = 0.3760 0.2156 0.0000 ( 24088 PWs)   bands (ev):

   -45.5665  -4.4521  -4.3973  -4.3003  -4.1273  -4.0629  -4.0263  -3.9396
    -3.8893  -3.8635  -3.7498  -3.7125  -3.6528  -3.5549  -3.5170  -3.4211
    -3.4180  -3.2545  -3.1842  -3.1361  -3.0824  -2.9813  -2.9661  -2.7515
    -2.7503  -2.6619  -2.5399  -2.5184  -2.4761  -2.4440  -2.3041  -2.2688
    -2.1648  -2.1600  -2.0720  -2.0470  -2.0234  -1.9481  -1.8943  -1.8769
    -1.8028  -1.7730  -1.6489  -1.5918  -1.4879  -1.4841  -1.3920  -1.3006
     0.0056   0.1422   1.0198   2.0069   2.3927   2.4898   3.8037   3.8502
     4.4760   5.4037   5.6547   5.7883   6.0320

          k = 0.3760-0.7957 0.0000 ( 24065 PWs)   bands (ev):

   -45.5665  -4.4511  -4.3546  -4.1786  -4.1054  -4.0667  -3.9611  -3.9188
    -3.8607  -3.8047  -3.7684  -3.7288  -3.6299  -3.5753  -3.5491  -3.5179
    -3.3718  -3.2592  -3.1539  -3.0673  -3.0356  -2.9876  -2.8918  -2.8202
    -2.7347  -2.6870  -2.5790  -2.5418  -2.4256  -2.3938  -2.3377  -2.2840
    -2.1691  -2.1485  -2.0923  -2.0307  -1.9846  -1.9137  -1.8454  -1.7814
    -1.6992  -1.6528  -1.6308  -1.5783  -1.4499  -1.3855  -1.3034  -0.9501
    -0.5682   0.3040   0.5798   1.2887   1.8369   2.6115   2.6974   3.8880
     4.3053   4.6026   5.8471   6.2068   6.4351

          k = 0.3760-0.6512 0.0000 ( 24049 PWs)   bands (ev):

   -45.5665  -4.4871  -4.2977  -4.1681  -4.0901  -4.0670  -4.0255  -3.9410
    -3.7912  -3.7825  -3.7410  -3.7099  -3.6559  -3.5801  -3.5340  -3.4947
    -3.3823  -3.2600  -3.2418  -3.1164  -3.0592  -2.8733  -2.8433  -2.6951
    -2.6915  -2.6585  -2.6033  -2.4697  -2.4381  -2.3621  -2.2711  -2.2595
    -2.1675  -2.0932  -2.0644  -2.0127  -1.9300  -1.8772  -1.8181  -1.7967
    -1.6958  -1.5333  -1.4901  -1.4283  -1.3552  -1.3486  -1.2806  -1.0421
    -0.3155  -0.0743   0.0390   1.0347   1.4143   1.7569   2.8524   3.4371
     3.9649   4.6611   4.9699   6.2522   7.0040

          k = 0.3760-0.5067 0.0000 ( 24032 PWs)   bands (ev):

   -45.5664  -4.4871  -4.2977  -4.1680  -4.0901  -4.0672  -4.0253  -3.9409
    -3.7911  -3.7826  -3.7410  -3.7098  -3.6558  -3.5801  -3.5340  -3.4947
    -3.3823  -3.2599  -3.2419  -3.1166  -3.0592  -2.8734  -2.8432  -2.6949
    -2.6916  -2.6583  -2.6034  -2.4699  -2.4381  -2.3623  -2.2709  -2.2596
    -2.1674  -2.0933  -2.0643  -2.0128  -1.9302  -1.8770  -1.8180  -1.7966
    -1.6958  -1.5333  -1.4901  -1.4282  -1.3552  -1.3486  -1.2805  -1.0421
    -0.3155  -0.0743   0.0389   1.0347   1.4143   1.7569   2.8524   3.4372
     3.9649   4.6611   4.9699   6.2523   7.0037

          k = 0.3760-0.3623 0.0000 ( 24075 PWs)   bands (ev):

   -45.5665  -4.4510  -4.3547  -4.1786  -4.1053  -4.0668  -3.9611  -3.9189
    -3.8605  -3.8046  -3.7685  -3.7287  -3.6298  -3.5753  -3.5492  -3.5180
    -3.3717  -3.2592  -3.1538  -3.0675  -3.0355  -2.9875  -2.8919  -2.8204
    -2.7346  -2.6872  -2.5790  -2.5417  -2.4258  -2.3939  -2.3376  -2.2841
    -2.1693  -2.1483  -2.0924  -2.0306  -1.9845  -1.9136  -1.8454  -1.7814
    -1.6993  -1.6528  -1.6308  -1.5783  -1.4498  -1.3855  -1.3035  -0.9501
    -0.5682   0.3040   0.5798   1.2887   1.8369   2.6116   2.6975   3.8882
     4.3053   4.6026   5.8462   6.2095   6.4346

          k =-0.5013 0.2904 0.0000 ( 24044 PWs)   bands (ev):

   -45.5665  -4.4761  -4.4024  -4.0821  -4.0464  -3.9867  -3.9188  -3.8524
    -3.8151  -3.7951  -3.7671  -3.7491  -3.7072  -3.6810  -3.6459  -3.3896
    -3.3078  -3.2629  -3.2031  -3.1775  -3.0718  -2.9973  -2.9590  -2.8566
    -2.8455  -2.6118  -2.5722  -2.4837  -2.4759  -2.3980  -2.3274  -2.2309
    -2.1774  -2.1530  -2.1215  -2.0651  -2.0225  -1.9174  -1.9172  -1.7702
    -1.7351  -1.6179  -1.5941  -1.3925  -1.3865  -1.3608  -1.2352  -1.0010
    -0.6105  -0.2545   0.7980   1.2754   1.9924   2.7339   3.5339   3.5734
     4.4033   5.3915   5.6095   5.7703   5.9317

          k =-0.5013 0.4349 0.0000 ( 24075 PWs)   bands (ev):

   -45.5665  -4.4510  -4.3547  -4.1786  -4.1053  -4.0668  -3.9611  -3.9189
    -3.8605  -3.8046  -3.7685  -3.7287  -3.6298  -3.5753  -3.5492  -3.5180
    -3.3717  -3.2592  -3.1538  -3.0675  -3.0355  -2.9875  -2.8919  -2.8204
    -2.7346  -2.6872  -2.5790  -2.5417  -2.4258  -2.3939  -2.3376  -2.2841
    -2.1693  -2.1483  -2.0924  -2.0306  -1.9845  -1.9136  -1.8454  -1.7814
    -1.6993  -1.6528  -1.6308  -1.5783  -1.4498  -1.3855  -1.3035  -0.9501
    -0.5682   0.3039   0.5798   1.2887   1.8369   2.6116   2.6975   3.8882
     4.3053   4.6026   5.8462   6.2095   6.4345

          k =-0.5013 0.5793 0.0000 ( 24068 PWs)   bands (ev):

   -45.5665  -4.4474  -4.2581  -4.2519  -4.1670  -4.1043  -4.0670  -3.9072
    -3.8589  -3.8076  -3.7662  -3.7181  -3.6635  -3.5619  -3.5196  -3.4837
    -3.3691  -3.2739  -3.1770  -3.0912  -3.0215  -2.8887  -2.8539  -2.7729
    -2.7247  -2.6921  -2.5717  -2.4584  -2.4073  -2.3600  -2.3345  -2.2546
    -2.1659  -2.1019  -2.0746  -2.0027  -1.9821  -1.9410  -1.8990  -1.8182
    -1.7763  -1.7077  -1.6202  -1.5732  -1.4883  -1.3805  -1.3618  -1.1290
     0.2018   0.2201   0.4180   1.3515   1.3947   2.4976   2.9294   3.1277
     4.2092   4.8584   5.1904   6.2094   6.6914

          k =-0.5013 0.7238 0.0000 ( 24070 PWs)   bands (ev):

   -45.5665  -4.4511  -4.3546  -4.1787  -4.1053  -4.0668  -3.9612  -3.9187
    -3.8606  -3.8046  -3.7686  -3.7288  -3.6298  -3.5753  -3.5492  -3.5179
    -3.3718  -3.2593  -3.1539  -3.0673  -3.0356  -2.9875  -2.8918  -2.8204
    -2.7345  -2.6872  -2.5791  -2.5417  -2.4258  -2.3937  -2.3377  -2.2840
    -2.1690  -2.1485  -2.0923  -2.0307  -1.9846  -1.9136  -1.8455  -1.7814
    -1.6993  -1.6528  -1.6308  -1.5783  -1.4498  -1.3854  -1.3035  -0.9501
    -0.5683   0.3040   0.5798   1.2887   1.8369   2.6115   2.6974   3.8880
     4.3053   4.6026   5.8469   6.2063   6.4346

          k =-0.5013-0.2874 0.0000 ( 24060 PWs)   bands (ev):

   -45.5665  -4.4762  -4.4023  -4.0821  -4.0464  -3.9868  -3.9189  -3.8524
    -3.8150  -3.7952  -3.7671  -3.7491  -3.7071  -3.6810  -3.6461  -3.3897
    -3.3076  -3.2631  -3.2031  -3.1777  -3.0719  -2.9973  -2.9590  -2.8567
    -2.8453  -2.6118  -2.5722  -2.4836  -2.4755  -2.3983  -2.3274  -2.2308
    -2.1774  -2.1529  -2.1216  -2.0653  -2.0225  -1.9176  -1.9171  -1.7702
    -1.7351  -1.6179  -1.5942  -1.3925  -1.3864  -1.3609  -1.2353  -1.0010
    -0.6105  -0.2545   0.7980   1.2754   1.9924   2.7338   3.5339   3.5733
     4.4032   5.3915   5.6095   5.7703   5.9317

     the Fermi energy is     1.4833 ev

!    total energy              =    -773.41850035 Ry
     estimated scf accuracy    <          1.4E-09 Ry
     smearing contrib. (-TS)   =       0.00123366 Ry
     internal energy E=F+TS    =    -773.41973401 Ry

     The total energy is F=E-TS. E is the sum of the following terms:
     one-electron contribution =   -7794.20007652 Ry
     hartree contribution      =    3965.73222260 Ry
     xc contribution           =    -204.43852240 Ry
     ewald contribution        =    3259.72017118 Ry
     DFT-D3 Dispersion         =      -0.23352887 Ry

     convergence has been achieved in   7 iterations

     negative rho (up, down):  3.070E-05 0.000E+00

     Forces acting on atoms (cartesian axes, Ry/au):

     atom    1 type  2   force =    -0.00004088    0.00002689   -0.00047482
     atom    2 type  2   force =     0.00002668   -0.00001522    0.00022756
     atom    3 type  2   force =    -0.00005808    0.00003323   -0.00065654
     atom    4 type  2   force =    -0.00000428   -0.00000178   -0.00044842
     atom    5 type  2   force =    -0.00003236    0.00001933   -0.00030115
     atom    6 type  2   force =     0.00000997   -0.00000537    0.00008995
     atom    7 type  2   force =     0.00004708   -0.00002903    0.00066885
     atom    8 type  2   force =     0.00003066   -0.00001843    0.00038241
     atom    9 type  2   force =     0.00003197   -0.00001645    0.00040952
     atom   10 type  1   force =    -0.00001076    0.00000682    0.00010264
     The non-local contrib.  to forces
     atom    1 type  2   force =     0.00200138   -0.00115637    0.02778069
     atom    2 type  2   force =     0.00151482   -0.00087827    0.02045880
     atom    3 type  2   force =    -0.00256754    0.00148798   -0.03507966
     atom    4 type  2   force =    -0.00129217    0.00074493   -0.01854096
     atom    5 type  2   force =     0.00028928   -0.00016593    0.00456780
     atom    6 type  2   force =     0.00227513   -0.00131681    0.03194445
     atom    7 type  2   force =     0.00031703   -0.00018565    0.00428563
     atom    8 type  2   force =    -0.01257871    0.00728667   -0.17489688
     atom    9 type  2   force =    -0.00118974    0.00069056   -0.01678846
     atom   10 type  1   force =     0.00468463   -0.00271186    0.06552971
     The ionic contribution  to forces
     atom    1 type  2   force =     7.48035751   -4.33353935  103.92579138
     atom    2 type  2   force =     4.26259274   -2.46954163   59.19489522
     atom    3 type  2   force =    -2.23635781    1.29562416  -31.05260921
     atom    4 type  2   force =     6.76574995   -3.91990454   93.96949636
     atom    5 type  2   force =     0.19002546   -0.11003892    2.65664367
     atom    6 type  2   force =     1.25215441   -0.72538847   17.40410712
     atom    7 type  2   force =    -5.40599434    3.13181074  -75.10945655
     atom    8 type  2   force =    -8.23046797    4.76824610 -114.34052679
     atom    9 type  2   force =    -6.49023353    3.76018631  -90.17266779
     atom   10 type  1   force =     2.41217359   -1.39745440   33.52432660
     The local contribution  to forces
     atom    1 type  2   force =    -7.48189727    4.33443256 -103.94706476
     atom    2 type  2   force =    -4.26397788    2.47034476  -59.21378121
     atom    3 type  2   force =     2.23842857   -1.29682448   31.08103091
     atom    4 type  2   force =    -6.76425182    3.91903512  -93.94855978
     atom    5 type  2   force =    -0.19044396    0.11028034   -2.66278228
     atom    6 type  2   force =    -1.25406203    0.72649278  -17.43102089
     atom    7 type  2   force =     5.40546533   -3.13150464   75.10224251
     atom    8 type  2   force =     8.24230469   -4.77510411  114.50505504
     atom    9 type  2   force =     6.49104825   -3.76065677   90.18417912
     atom   10 type  1   force =    -2.41673395    1.40009489  -33.58785890
     The core correction contribution to forces
     atom    1 type  2   force =    -0.00022536    0.00013018   -0.00312022
     atom    2 type  2   force =     0.00010169   -0.00005890    0.00144990
     atom    3 type  2   force =     0.00005242   -0.00003036    0.00069108
     atom    4 type  2   force =    -0.00006845    0.00004022   -0.00088355
     atom    5 type  2   force =     0.00002816   -0.00001642    0.00035503
     atom    6 type  2   force =    -0.00007279    0.00004210   -0.00101793
     atom    7 type  2   force =     0.00008945   -0.00005159    0.00124832
     atom    8 type  2   force =     0.00055066   -0.00031892    0.00765498
     atom    9 type  2   force =     0.00020677   -0.00012004    0.00288504
     atom   10 type  1   force =     0.00000000    0.00000000    0.00000000
     The Hubbard contrib.    to forces
     atom    1 type  2   force =     0.00000000    0.00000000    0.00000000
     atom    2 type  2   force =     0.00000000    0.00000000    0.00000000
     atom    3 type  2   force =     0.00000000    0.00000000    0.00000000
     atom    4 type  2   force =     0.00000000    0.00000000    0.00000000
     atom    5 type  2   force =     0.00000000    0.00000000    0.00000000
     atom    6 type  2   force =     0.00000000    0.00000000    0.00000000
     atom    7 type  2   force =     0.00000000    0.00000000    0.00000000
     atom    8 type  2   force =     0.00000000    0.00000000    0.00000000
     atom    9 type  2   force =     0.00000000    0.00000000    0.00000000
     atom   10 type  1   force =     0.00000000    0.00000000    0.00000000
     The SCF correction term to forces
     atom    1 type  2   force =     0.00000291   -0.00000223    0.00000710
     atom    2 type  2   force =     0.00000378   -0.00000200    0.00003254
     atom    3 type  2   force =    -0.00000111    0.00000047   -0.00000784
     atom    4 type  2   force =    -0.00000302    0.00000202   -0.00002184
     atom    5 type  2   force =    -0.00000340    0.00000201   -0.00004773
     atom    6 type  2   force =    -0.00000487    0.00000294   -0.00005452
     atom    7 type  2   force =     0.00000581   -0.00000298    0.00007374
     atom    8 type  2   force =     0.00000185   -0.00000069    0.00002424
     atom    9 type  2   force =     0.00000215   -0.00000173    0.00003302
     atom   10 type  1   force =    -0.00000104    0.00000063   -0.00001049

     DFT-D3 dispersion contribution to forces:
     atom    1 type  2   force =    -0.00028007    0.00016214   -0.00386984
     atom    2 type  2   force =    -0.00020850    0.00012086   -0.00282851
     atom    3 type  2   force =     0.00038735   -0.00022449    0.00531735
     atom    4 type  2   force =    -0.00013881    0.00008052   -0.00193947
     atom    5 type  2   force =     0.00007206   -0.00004171    0.00096153
     atom    6 type  2   force =    -0.00027991    0.00016213   -0.00386911
     atom    7 type  2   force =     0.00016376   -0.00009486    0.00227437
     atom    8 type  2   force =     0.00022011   -0.00012744    0.00307099
     atom    9 type  2   force =     0.00019804   -0.00011474    0.00276777
     atom   10 type  1   force =    -0.00013402    0.00007759   -0.00188510

     Total force =     0.001340     Total SCF correction =     0.000119


     Computing stress (Cartesian axis) and pressure


     negative rho (up, down):  3.070E-05 0.000E+00
          total   stress  (Ry/bohr**3)                   (kbar)     P=      -12.09
  -0.00010017  -0.00000015   0.00000392          -14.73       -0.02        0.58
  -0.00000015  -0.00010035  -0.00000227           -0.02      -14.76       -0.33
   0.00000392  -0.00000227  -0.00004603            0.58       -0.33       -6.77

     Energy error            =      1.2E-05 Ry
     Gradient error          =      6.7E-04 Ry/Bohr

     bfgs converged in  50 scf cycles and  49 bfgs steps
     (criteria: energy <  1.0E-04 Ry, force <  1.0E-03 Ry/Bohr)

     End of BFGS Geometry Optimization

     Final energy             =    -773.4185003481 Ry

     File ./Ag_mp-2646971_111_ontop_1/Ag_mp-2646971_111_ontop_1.bfgs deleted, as requested
Begin final coordinates

ATOMIC_POSITIONS (angstrom)
Ag            4.5469536327        3.2287470936       17.0840925529
Ag            4.4295458945        0.5907687101       15.4516931106
Ag            4.2301396740        0.7062967116       12.6701657474
Ag            2.1817128289        1.8930471344       16.8388888000
Ag            1.9740002244        2.0133689830       13.9406369170
Ag            4.3453532916        3.3455480600       14.2735154308
Ag            4.1410831188        3.4639242105       11.4370432133
Ag            4.0337072465        0.8201251035        9.9465222234
Ag            1.7669023487        2.1333755414       11.0671184736
Li            4.6165760592        0.4823944245       18.0442380976
End final coordinates



     Writing all to output data dir ./Ag_mp-2646971_111_ontop_1/Ag_mp-2646971_111_ontop_1.save/

     init_run     :      2.64s CPU      3.53s WALL (       1 calls)
     electrons    :    583.58s CPU    623.11s WALL (      50 calls)
     update_pot   :     36.93s CPU     37.98s WALL (      49 calls)
     forces       :     28.55s CPU     30.34s WALL (      50 calls)
     force_dftd3  :      0.44s CPU      0.78s WALL (      50 calls)
     stress       :    111.74s CPU    114.53s WALL (      50 calls)
     stres_dftd3  :      1.10s CPU      1.77s WALL (      50 calls)

     Called by init_run:
     wfcinit      :      0.53s CPU      1.02s WALL (       1 calls)
     potinit      :      0.78s CPU      0.79s WALL (       1 calls)
     hinit0       :      1.15s CPU      1.48s WALL (       1 calls)

     Called by electrons:
     c_bands      :    512.37s CPU    540.50s WALL (     406 calls)
     sum_band     :     56.00s CPU     58.93s WALL (     406 calls)
     v_of_rho     :      6.63s CPU      8.70s WALL (     444 calls)
     newd         :      7.16s CPU      7.75s WALL (     444 calls)
     mix_rho      :      0.77s CPU      0.79s WALL (     406 calls)
     energy_dftd3 :      0.09s CPU      0.09s WALL (      50 calls)

     Called by c_bands:
     init_us_2    :      2.28s CPU      2.37s WALL (    8217 calls)
     init_us_2:cp :      2.26s CPU      2.36s WALL (    8217 calls)
     cegterg      :    440.96s CPU    453.59s WALL (    3695 calls)

     Called by *egterg:
     cdiaghg      :     88.86s CPU     89.48s WALL (   18987 calls)
     h_psi        :    281.93s CPU    291.03s WALL (   19586 calls)
     s_psi        :     13.94s CPU     14.07s WALL (   19586 calls)
     g_psi        :      0.90s CPU      0.92s WALL (   15882 calls)

     Called by h_psi:
     h_psi:calbec :     23.39s CPU     25.81s WALL (   19586 calls)
     vloc_psi     :    242.99s CPU    249.50s WALL (   19586 calls)
     add_vuspsi   :     14.56s CPU     14.73s WALL (   19586 calls)

     General routines
     calbec       :     35.30s CPU     38.75s WALL (   25490 calls)
     fft          :      8.93s CPU     11.81s WALL (    6983 calls)
     ffts         :      1.00s CPU      1.64s WALL (     850 calls)
     fftw         :    253.37s CPU    260.01s WALL ( 1614120 calls)
     interpolate  :      0.99s CPU      1.35s WALL (     444 calls)

     Parallel routines

     PWSCF        :  12m46.32s CPU  13m34.58s WALL


   This run was terminated on:   6:50:48  24Jul2025            

=------------------------------------------------------------------------------=
   JOB DONE.
=------------------------------------------------------------------------------=
