
     Program PWSCF v.7.2 starts on 24Jul2025 at  6:35:23 

     This program is part of the open-source Quantum ESPRESSO suite
     for quantum simulation of materials; please cite
         "P. Giannozzi et al., J. Phys.:Condens. Matter 21 395502 (2009);
         "P. Giannozzi et al., J. Phys.:Condens. Matter 29 465901 (2017);
         "P. Giannozzi et al., J. Chem. Phys. 152 154105 (2020);
          URL http://www.quantum-espresso.org", 
     in publications or presentations arising from this work. More details at
     http://www.quantum-espresso.org/quote

     Parallel version (MPI & OpenMP), running on     192 processor cores
     Number of MPI processes:               192
     Threads/MPI process:                     1

     MPI processes distributed on     3 nodes
     240854 MiB available memory on the printing compute node when the environment starts

     Reading input from Ag_mp-2646971_111_ontop_0.in

     Current dimensions of program PWSCF are:
     Max number of different atomic species (ntypx) = 10
     Max number of k-points (npk) =  40000
     Max angular momentum in pseudopotentials (lmaxx) =  4
     Message from routine iosys:
     restart disabled: needed files not found

     K-points division:     npool     =       4
     R & G space division:  proc/nbgrp/npool/nimage =      48
     Subspace diagonalization in iterative solution of the eigenvalue problem:
     a serial algorithm will be used


     Parallelization info
     --------------------
     sticks:   dense  smooth     PW     G-vecs:    dense   smooth      PW
     Min          56      24      7                13764     4000     628
     Max          57      25      8                13787     4039     653
     Sum        2713    1189    349               661159   192697   30755

     Using Slab Decomposition



     bravais-lattice index     =            0
     lattice parameter (alat)  =       8.8494  a.u.
     unit-cell volume          =    3499.1022 (a.u.)^3
     number of atoms/cell      =           10
     number of atomic types    =            2
     number of electrons       =       102.00
     number of Kohn-Sham states=           61
     kinetic-energy cutoff     =      55.0000  Ry
     charge density cutoff     =     500.0000  Ry
     scf convergence threshold =      1.0E-06
     mixing beta               =       0.3000
     number of iterations used =            8  plain     mixing
     energy convergence thresh.=      1.0E-04
     force convergence thresh. =      1.0E-03
     Exchange-correlation= PBE
                           (   1   4   3   4   0   0   0)
     nstep                     =          500


     celldm(1)=   8.849392  celldm(2)=   0.000000  celldm(3)=   0.000000
     celldm(4)=   0.000000  celldm(5)=   0.000000  celldm(6)=   0.000000

     crystal axes: (cart. coord. in units of alat)
               a(1) = (   0.997419   0.000000  -0.071796 )  
               a(2) = (   0.501294   0.865277   0.000000 )  
               a(3) = (   0.000000   0.000000   5.850369 )  

     reciprocal axes: (cart. coord. in units 2 pi/alat)
               b(1) = (  1.002587 -0.580844  0.000000 )  
               b(2) = ( -0.000000  1.155699  0.000000 )  
               b(3) = (  0.012304 -0.007128  0.170929 )  


     PseudoPot. # 1 for Li read from file:
     /home/ecastro/trabajo_final/pseudos/Li.pbe-s-rrkjus_psl.1.0.0.UPF
     MD5 check sum: 9f98d2529904d60b716d33989e9bc179
     Pseudo is Ultrasoft, Zval =  3.0
     Generated using &quot;atomic&quot; code by A. Dal Corso  v.6.3MaX
     Using radial grid of 1017 points,  4 beta functions with: 
                l(1) =   0
                l(2) =   0
                l(3) =   1
                l(4) =   1
     Q(r) pseudized with 0 coefficients 


     PseudoPot. # 2 for Ag read from file:
     /home/ecastro/trabajo_final/pseudos/Ag.pbe-n-rrkjus_psl.1.0.0.UPF
     MD5 check sum: 81cdf87bacf708300839c66ee23ce017
     Pseudo is Ultrasoft + core correction, Zval = 11.0
     Generated using &quot;atomic&quot; code by A. Dal Corso  v.6.2.2
     Using radial grid of 1237 points,  6 beta functions with: 
                l(1) =   0
                l(2) =   0
                l(3) =   1
                l(4) =   1
                l(5) =   2
                l(6) =   2
     Q(r) pseudized with 0 coefficients 


     atomic species   valence    mass     pseudopotential
        Li             3.00     6.94100     Li( 1.00)
        Ag            11.00   107.86820     Ag( 1.00)

     No symmetry found



   Cartesian axes

     site n.     atom                  positions (alat units)
         1           Ag  tau(   1) = (   0.9602196   0.6957065   3.4973174  )
         2           Ag  tau(   2) = (   0.9708482   0.1116992   3.6449910  )
         3           Ag  tau(   3) = (   0.9293743   0.1357298   3.0687760  )
         4           Ag  tau(   4) = (   0.4474382   0.4149353   3.3377079  )
         5           Ag  tau(   5) = (   0.4022408   0.4411217   2.7097969  )
         6           Ag  tau(   6) = (   0.9164544   0.7210643   2.8892865  )
         7           Ag  tau(   7) = (   0.8725266   0.7465137   2.2790220  )
         8           Ag  tau(   8) = (   0.8854465   0.1611791   2.4585116  )
         9           Ag  tau(   9) = (   0.3583130   0.4665710   2.0995325  )
        10           Li  tau(  10) = (   0.9908561   0.6779574   4.0720771  )

     --------------------------------------------
     DFT-D3 Dispersion Correction (no 3-body):
     --------------------------------------------
       Reference C6 values for interpolation: 

         atom   Coordination number   C6
         Li         0.000          2326.89
         Li         0.987           170.64
         Ag         0.000           853.49
         Ag         0.968           537.23

       Values used:

         atom   Coordination number  R0_AB[au]  C6      C8
         Ag         7.233            3.147    537.23  47741.54
         Ag         5.384            3.147    537.23  47741.54
         Ag         7.552            3.147    537.23  47741.54
         Ag         6.934            3.147    537.23  47741.54
         Ag         7.391            3.147    537.23  47741.54
         Ag         7.408            3.147    537.23  47741.54
         Ag         6.027            3.147    537.23  47741.54
         Ag         6.732            3.147    537.23  47741.54
         Ag         3.768            3.147    537.23  47741.54
         Li         1.947            3.303    170.65  12900.49

         Molecular C6 ( Ry / a.u.^6 ) =     48893.69


     number of k points=    34  Methfessel-Paxton smearing, width (Ry)=  0.0300
                       cart. coord. in units 2pi/alat
        k(    1) = (   0.0000000   0.0000000   0.0000000), wk =   0.0312500
        k(    2) = (   0.0000000   0.1444624   0.0000000), wk =   0.0625000
        k(    3) = (   0.0000000   0.2889247   0.0000000), wk =   0.0625000
        k(    4) = (   0.0000000   0.4333871   0.0000000), wk =   0.0625000
        k(    5) = (   0.0000000  -0.5778495   0.0000000), wk =   0.0312500
        k(    6) = (   0.1253234  -0.0726054   0.0000000), wk =   0.0625000
        k(    7) = (   0.1253234   0.0718569   0.0000000), wk =   0.0625000
        k(    8) = (   0.1253234   0.2163193   0.0000000), wk =   0.0625000
        k(    9) = (   0.1253234   0.3607817   0.0000000), wk =   0.0625000
        k(   10) = (   0.1253234  -0.6504549   0.0000000), wk =   0.0625000
        k(   11) = (   0.1253234  -0.5059926   0.0000000), wk =   0.0625000
        k(   12) = (   0.1253234  -0.3615302   0.0000000), wk =   0.0625000
        k(   13) = (   0.1253234  -0.2170678   0.0000000), wk =   0.0625000
        k(   14) = (   0.2506468  -0.1452109   0.0000000), wk =   0.0625000
        k(   15) = (   0.2506468  -0.0007485   0.0000000), wk =   0.0625000
        k(   16) = (   0.2506468   0.1437139   0.0000000), wk =   0.0625000
        k(   17) = (   0.2506468   0.2881762   0.0000000), wk =   0.0625000
        k(   18) = (   0.2506468  -0.7230604   0.0000000), wk =   0.0625000
        k(   19) = (   0.2506468  -0.5785980   0.0000000), wk =   0.0625000
        k(   20) = (   0.2506468  -0.4341356   0.0000000), wk =   0.0625000
        k(   21) = (   0.2506468  -0.2896733   0.0000000), wk =   0.0625000
        k(   22) = (   0.3759702  -0.2178163   0.0000000), wk =   0.0625000
        k(   23) = (   0.3759702  -0.0733540   0.0000000), wk =   0.0625000
        k(   24) = (   0.3759702   0.0711084   0.0000000), wk =   0.0625000
        k(   25) = (   0.3759702   0.2155708   0.0000000), wk =   0.0625000
        k(   26) = (   0.3759702  -0.7956658   0.0000000), wk =   0.0625000
        k(   27) = (   0.3759702  -0.6512034   0.0000000), wk =   0.0625000
        k(   28) = (   0.3759702  -0.5067411   0.0000000), wk =   0.0625000
        k(   29) = (   0.3759702  -0.3622787   0.0000000), wk =   0.0625000
        k(   30) = (  -0.5012937   0.2904218   0.0000000), wk =   0.0312500
        k(   31) = (  -0.5012937   0.4348841   0.0000000), wk =   0.0625000
        k(   32) = (  -0.5012937   0.5793465   0.0000000), wk =   0.0625000
        k(   33) = (  -0.5012937   0.7238089   0.0000000), wk =   0.0625000
        k(   34) = (  -0.5012937  -0.2874277   0.0000000), wk =   0.0312500

     Dense  grid:   661159 G-vectors     FFT dimensions: (  64,  64, 375)

     Smooth grid:   192697 G-vectors     FFT dimensions: (  45,  45, 250)

     Estimated max dynamical RAM per process >      29.11 MB

     Estimated total dynamical RAM >       4.98 GB
     Cannot read rho : file not found

     Initial potential from superposition of free atoms

     starting charge     101.9918, renormalised to     102.0000

     negative rho (up, down):  7.526E-05 0.000E+00
     Message from routine qexsd_readschema :
     xml data file ./Ag_mp-2646971_111_ontop_0/Ag_mp-2646971_111_ontop_0.save/data-fi
     Cannot read wfcs: file not found
     Starting wfcs are   86 randomized atomic wfcs

     total cpu time spent up to now is        4.1 secs

     per-process dynamical memory:   181.9 Mb

     Self-consistent Calculation

     iteration #  1     ecut=    55.00 Ry     beta= 0.30
     Davidson diagonalization with overlap
     c_bands:  1 eigenvalues not converged
     c_bands:  1 eigenvalues not converged
     c_bands:  1 eigenvalues not converged
     c_bands:  1 eigenvalues not converged
     c_bands:  3 eigenvalues not converged
     c_bands:  2 eigenvalues not converged
     ethr =  1.00E-05,  avg # of iterations = 17.9

     negative rho (up, down):  6.153E-05 0.000E+00

     total cpu time spent up to now is        9.0 secs

     total energy              =    -773.24144199 Ry
     estimated scf accuracy    <       0.41259726 Ry

     iteration #  2     ecut=    55.00 Ry     beta= 0.30
     Davidson diagonalization with overlap
     ethr =  4.05E-04,  avg # of iterations =  9.0

     negative rho (up, down):  8.336E-05 0.000E+00

     total cpu time spent up to now is       10.6 secs

     total energy              =    -773.08435586 Ry
     estimated scf accuracy    <       3.25888125 Ry

     iteration #  3     ecut=    55.00 Ry     beta= 0.30
     Davidson diagonalization with overlap
     ethr =  4.05E-04,  avg # of iterations =  9.4

     negative rho (up, down):  1.069E-04 0.000E+00

     total cpu time spent up to now is       12.2 secs

     total energy              =    -773.30544378 Ry
     estimated scf accuracy    <       1.39718009 Ry

     iteration #  4     ecut=    55.00 Ry     beta= 0.30
     Davidson diagonalization with overlap
     ethr =  4.05E-04,  avg # of iterations =  2.1

     negative rho (up, down):  5.719E-05 0.000E+00

     total cpu time spent up to now is       13.2 secs

     total energy              =    -773.35652302 Ry
     estimated scf accuracy    <       0.07378353 Ry

     iteration #  5     ecut=    55.00 Ry     beta= 0.30
     Davidson diagonalization with overlap
     ethr =  7.23E-05,  avg # of iterations =  9.0

     negative rho (up, down):  2.618E-05 0.000E+00

     total cpu time spent up to now is       14.6 secs

     total energy              =    -773.35933774 Ry
     estimated scf accuracy    <       0.00745285 Ry

     iteration #  6     ecut=    55.00 Ry     beta= 0.30
     Davidson diagonalization with overlap
     ethr =  7.31E-06,  avg # of iterations =  9.9

     negative rho (up, down):  2.496E-05 0.000E+00

     total cpu time spent up to now is       16.2 secs

     total energy              =    -773.36028965 Ry
     estimated scf accuracy    <       0.00112708 Ry

     iteration #  7     ecut=    55.00 Ry     beta= 0.30
     Davidson diagonalization with overlap
     ethr =  1.10E-06,  avg # of iterations =  2.1

     negative rho (up, down):  3.795E-05 0.000E+00

     total cpu time spent up to now is       17.2 secs

     total energy              =    -773.36046455 Ry
     estimated scf accuracy    <       0.00024928 Ry

     iteration #  8     ecut=    55.00 Ry     beta= 0.30
     Davidson diagonalization with overlap
     ethr =  2.44E-07,  avg # of iterations =  2.2

     negative rho (up, down):  5.404E-05 0.000E+00

     total cpu time spent up to now is       18.1 secs

     total energy              =    -773.36050739 Ry
     estimated scf accuracy    <       0.00004254 Ry

     iteration #  9     ecut=    55.00 Ry     beta= 0.30
     Davidson diagonalization with overlap
     ethr =  4.17E-08,  avg # of iterations =  4.9

     negative rho (up, down):  4.577E-05 0.000E+00

     total cpu time spent up to now is       19.3 secs

     total energy              =    -773.36051557 Ry
     estimated scf accuracy    <       0.00000553 Ry

     iteration # 10     ecut=    55.00 Ry     beta= 0.30
     Davidson diagonalization with overlap
     ethr =  5.42E-09,  avg # of iterations =  4.6

     negative rho (up, down):  3.743E-05 0.000E+00

     total cpu time spent up to now is       20.4 secs

     total energy              =    -773.36051733 Ry
     estimated scf accuracy    <       0.00000113 Ry

     iteration # 11     ecut=    55.00 Ry     beta= 0.30
     Davidson diagonalization with overlap
     ethr =  1.11E-09,  avg # of iterations =  3.6

     negative rho (up, down):  2.387E-05 0.000E+00

     total cpu time spent up to now is       21.5 secs

     End of self-consistent calculation

          k = 0.0000 0.0000 0.0000 ( 24179 PWs)   bands (ev):

   -46.4326  -5.2205  -4.1785  -4.0970  -4.0970  -3.6143  -3.6140  -3.5781
    -3.4189  -3.4186  -3.4117  -3.3400  -3.3399  -3.1882  -3.1628  -3.1624
    -3.1148  -3.1140  -3.0047  -3.0047  -2.9290  -2.8258  -2.8248  -2.6522
    -2.6065  -2.5382  -2.5381  -2.1581  -1.9830  -1.8661  -1.8618  -1.8276
    -1.8270  -1.7903  -1.7885  -1.7268  -1.7265  -1.6801  -1.6800  -1.6165
    -1.6165  -1.5411  -1.5410  -1.4353  -1.3087  -1.3086  -1.1282  -1.1281
    -0.7390   0.7340   2.0485   3.4830   4.5092   5.2893   5.3759   6.1892
     6.2320   6.6518   6.6810   6.6818   6.7587

          k = 0.0000 0.1445 0.0000 ( 24156 PWs)   bands (ev):

   -46.4326  -5.0665  -4.1326  -4.0353  -4.0347  -3.6952  -3.6280  -3.5805
    -3.5564  -3.4826  -3.4288  -3.3990  -3.3133  -3.3064  -3.2198  -3.0743
    -3.0645  -3.0132  -2.9755  -2.8873  -2.8578  -2.7595  -2.7249  -2.5782
    -2.5232  -2.4737  -2.4570  -2.1174  -1.9959  -1.9611  -1.9155  -1.8403
    -1.8257  -1.7908  -1.7482  -1.7419  -1.7254  -1.6955  -1.6777  -1.6660
    -1.6477  -1.5593  -1.5568  -1.4486  -1.3802  -1.3199  -1.1977  -1.1056
    -0.6670   0.8477   2.1678   3.6010   4.2965   4.6374   5.0289   5.1214
     5.4154   5.5210   5.9470   6.1277   6.2875

          k = 0.0000 0.2889 0.0000 ( 24139 PWs)   bands (ev):

   -46.4326  -4.6401  -4.0634  -3.9013  -3.8626  -3.8300  -3.7405  -3.6564
    -3.5858  -3.4960  -3.4529  -3.3956  -3.3392  -3.3314  -3.1629  -3.1031
    -3.0679  -2.9295  -2.8757  -2.8537  -2.7547  -2.5872  -2.5762  -2.4686
    -2.3922  -2.3396  -2.1753  -2.0972  -2.0883  -1.9951  -1.9276  -1.9196
    -1.8521  -1.8501  -1.8302  -1.7720  -1.7382  -1.7323  -1.6513  -1.6476
    -1.6359  -1.5707  -1.5557  -1.5148  -1.4248  -1.3569  -1.3278  -1.0619
    -0.3838   1.2078   2.1916   2.5467   3.1477   3.7633   3.9205   4.4390
     5.0018   5.0649   5.6167   5.8105   5.8684

          k = 0.0000 0.4334 0.0000 ( 24088 PWs)   bands (ev):

   -46.4325  -4.1645  -4.0454  -4.0146  -3.7566  -3.6587  -3.6531  -3.5731
    -3.5681  -3.4654  -3.4353  -3.4199  -3.3128  -3.2571  -3.1643  -3.1121
    -3.0172  -2.9516  -2.8848  -2.7905  -2.7642  -2.5826  -2.5584  -2.4661
    -2.3917  -2.3448  -2.1600  -2.1370  -2.1102  -1.9963  -1.9935  -1.9630
    -1.8779  -1.8170  -1.7833  -1.7600  -1.7472  -1.7189  -1.6497  -1.6150
    -1.5894  -1.5274  -1.4801  -1.4058  -1.3051  -1.2806  -1.1356  -1.0229
     0.2434   0.4412   1.3642   1.8776   2.7556   2.8194   3.1840   3.9814
     4.3408   4.8472   5.5765   5.7046   6.0704

          k = 0.0000-0.5778 0.0000 ( 24060 PWs)   bands (ev):

   -46.4325  -4.1691  -4.1094  -3.7459  -3.6574  -3.6400  -3.6019  -3.5625
    -3.4713  -3.4380  -3.3681  -3.3130  -3.2697  -3.2440  -3.2207  -3.1792
    -3.0804  -2.9262  -2.9223  -2.7994  -2.7639  -2.6674  -2.5903  -2.5114
    -2.4123  -2.3732  -2.2198  -2.1335  -2.0419  -2.0240  -2.0086  -1.9804
    -1.8606  -1.8476  -1.8258  -1.7576  -1.7358  -1.7187  -1.7056  -1.6253
    -1.5197  -1.4412  -1.4271  -1.2124  -1.1520  -0.9894  -0.9826  -0.8288
    -0.1554  -0.0241   1.2304   1.5215   2.4437   2.5268   3.1404   3.7818
     4.1026   4.6111   5.6392   5.7203   5.9694

          k = 0.1253-0.0726 0.0000 ( 24146 PWs)   bands (ev):

   -46.4326  -5.0664  -4.1323  -4.0352  -4.0348  -3.6951  -3.6280  -3.5803
    -3.5564  -3.4824  -3.4289  -3.3997  -3.3144  -3.3061  -3.2197  -3.0750
    -3.0640  -3.0128  -2.9755  -2.8868  -2.8574  -2.7571  -2.7253  -2.5782
    -2.5240  -2.4742  -2.4569  -2.1179  -1.9973  -1.9606  -1.9158  -1.8391
    -1.8269  -1.7897  -1.7485  -1.7415  -1.7256  -1.6952  -1.6777  -1.6662
    -1.6476  -1.5593  -1.5568  -1.4486  -1.3804  -1.3198  -1.1977  -1.1055
    -0.6673   0.8474   2.1678   3.6009   4.2933   4.6386   5.0339   5.1094
     5.4009   5.5407   5.9603   6.1228   6.2845

          k = 0.1253 0.0719 0.0000 ( 24156 PWs)   bands (ev):

   -46.4326  -5.0665  -4.1326  -4.0353  -4.0347  -3.6952  -3.6280  -3.5805
    -3.5564  -3.4826  -3.4288  -3.3990  -3.3133  -3.3064  -3.2198  -3.0743
    -3.0645  -3.0132  -2.9755  -2.8873  -2.8578  -2.7595  -2.7249  -2.5782
    -2.5232  -2.4737  -2.4570  -2.1174  -1.9959  -1.9611  -1.9155  -1.8403
    -1.8257  -1.7908  -1.7482  -1.7419  -1.7254  -1.6955  -1.6777  -1.6660
    -1.6477  -1.5593  -1.5568  -1.4486  -1.3802  -1.3199  -1.1977  -1.1056
    -0.6670   0.8477   2.1678   3.6010   4.2965   4.6375   5.0289   5.1214
     5.4154   5.5209   5.9470   6.1277   6.2875

          k = 0.1253 0.2163 0.0000 ( 24149 PWs)   bands (ev):

   -46.4326  -4.7767  -4.0637  -3.9293  -3.9220  -3.7686  -3.7323  -3.6432
    -3.6085  -3.4996  -3.4692  -3.3896  -3.3378  -3.3144  -3.2500  -3.1131
    -3.0513  -3.0167  -2.8434  -2.7956  -2.6928  -2.6477  -2.5800  -2.5316
    -2.4066  -2.3204  -2.2895  -2.0995  -2.0179  -2.0110  -1.9796  -1.9220
    -1.8743  -1.8398  -1.8214  -1.7698  -1.7364  -1.7082  -1.6610  -1.6577
    -1.6143  -1.5754  -1.5489  -1.5002  -1.4740  -1.3563  -1.1847  -1.1392
    -0.4851   1.0879   2.4057   3.1853   3.2732   3.8251   4.0901   4.3321
     4.8990   5.3736   5.5430   5.7184   5.8480

          k = 0.1253 0.3608 0.0000 ( 24102 PWs)   bands (ev):

   -46.4325  -4.2987  -4.0246  -3.9132  -3.8278  -3.7523  -3.7000  -3.6756
    -3.6181  -3.5165  -3.4603  -3.3806  -3.3500  -3.2585  -3.1724  -3.1007
    -3.0876  -2.9919  -2.7941  -2.7666  -2.6652  -2.5457  -2.4645  -2.3998
    -2.3366  -2.2662  -2.1716  -2.1393  -2.1024  -2.0034  -1.9877  -1.9442
    -1.9307  -1.8768  -1.8296  -1.7938  -1.7576  -1.7370  -1.7030  -1.6360
    -1.5904  -1.5742  -1.4751  -1.4247  -1.4103  -1.3045  -1.2278  -1.1098
    -0.0006   1.2917   1.5897   2.2547   2.3814   2.9058   3.4588   3.8225
     4.2031   4.9330   5.2567   5.5091   6.1596

          k = 0.1253-0.6505 0.0000 ( 24065 PWs)   bands (ev):

   -46.4325  -4.1019  -4.0556  -3.8611  -3.7313  -3.6541  -3.6318  -3.5611
    -3.5450  -3.4833  -3.4375  -3.3987  -3.2893  -3.2246  -3.1384  -3.0694
    -3.0264  -2.9587  -2.8744  -2.7993  -2.7357  -2.5983  -2.5482  -2.3686
    -2.3551  -2.2792  -2.2286  -2.1643  -2.1108  -2.0236  -2.0009  -1.9348
    -1.9081  -1.8545  -1.8177  -1.7963  -1.7506  -1.7307  -1.7008  -1.6609
    -1.5729  -1.3991  -1.3696  -1.3146  -1.2162  -1.1533  -1.0772  -0.6177
    -0.2707   0.6108   0.9818   1.6953   2.1349   2.4450   3.1558   3.4508
     3.8045   4.7416   4.8716   5.6827   6.0783

          k = 0.1253-0.5060 0.0000 ( 24070 PWs)   bands (ev):

   -46.4325  -4.1019  -4.0556  -3.8608  -3.7316  -3.6542  -3.6320  -3.5608
    -3.5451  -3.4835  -3.4378  -3.3980  -3.2887  -3.2246  -3.1386  -3.0689
    -3.0271  -2.9595  -2.8736  -2.8003  -2.7361  -2.5984  -2.5474  -2.3686
    -2.3553  -2.2800  -2.2281  -2.1640  -2.1105  -2.0228  -2.0015  -1.9346
    -1.9084  -1.8545  -1.8177  -1.7957  -1.7509  -1.7308  -1.7006  -1.6614
    -1.5729  -1.3989  -1.3695  -1.3146  -1.2164  -1.1530  -1.0773  -0.6177
    -0.2708   0.6106   0.9809   1.6951   2.1340   2.4439   3.1596   3.4487
     3.8052   4.7396   4.8740   5.6764   6.0892

          k = 0.1253-0.3615 0.0000 ( 24099 PWs)   bands (ev):

   -46.4325  -4.2985  -4.0246  -3.9132  -3.8278  -3.7519  -3.7003  -3.6756
    -3.6184  -3.5165  -3.4604  -3.3792  -3.3497  -3.2599  -3.1724  -3.0993
    -3.0887  -2.9914  -2.7953  -2.7663  -2.6661  -2.5452  -2.4642  -2.3994
    -2.3368  -2.2660  -2.1715  -2.1393  -2.1029  -2.0040  -1.9875  -1.9434
    -1.9310  -1.8760  -1.8295  -1.7929  -1.7582  -1.7374  -1.7041  -1.6356
    -1.5898  -1.5740  -1.4754  -1.4245  -1.4102  -1.3049  -1.2276  -1.1099
    -0.0015   1.2916   1.5882   2.2497   2.3859   2.9040   3.4546   3.8304
     4.1997   4.9336   5.2592   5.5152   6.1147

          k = 0.1253-0.2171 0.0000 ( 24155 PWs)   bands (ev):

   -46.4326  -4.7766  -4.0632  -3.9290  -3.9222  -3.7685  -3.7324  -3.6432
    -3.6084  -3.4998  -3.4696  -3.3888  -3.3401  -3.3142  -3.2497  -3.1126
    -3.0517  -3.0162  -2.8432  -2.7952  -2.6929  -2.6467  -2.5794  -2.5313
    -2.4062  -2.3206  -2.2906  -2.0994  -2.0209  -2.0112  -1.9792  -1.9216
    -1.8727  -1.8395  -1.8204  -1.7706  -1.7375  -1.7083  -1.6608  -1.6577
    -1.6140  -1.5753  -1.5489  -1.5001  -1.4742  -1.3564  -1.1846  -1.1392
    -0.4858   1.0871   2.4059   3.1812   3.2743   3.8260   4.0818   4.3375
     4.9019   5.3638   5.5408   5.6998   5.8969

          k = 0.2506-0.1452 0.0000 ( 24164 PWs)   bands (ev):

   -46.4326  -4.6400  -4.0629  -3.9013  -3.8626  -3.8301  -3.7402  -3.6565
    -3.5857  -3.4959  -3.4530  -3.3969  -3.3388  -3.3335  -3.1622  -3.1031
    -3.0679  -2.9288  -2.8756  -2.8525  -2.7516  -2.5879  -2.5760  -2.4684
    -2.3923  -2.3391  -2.1767  -2.0982  -2.0886  -1.9964  -1.9281  -1.9196
    -1.8521  -1.8502  -1.8311  -1.7714  -1.7386  -1.7317  -1.6515  -1.6462
    -1.6361  -1.5706  -1.5557  -1.5148  -1.4250  -1.3568  -1.3280  -1.0619
    -0.3848   1.2065   2.1914   2.5443   3.1445   3.7655   3.9189   4.4353
     5.0072   5.0724   5.5719   5.8321   5.9278

          k = 0.2506-0.0007 0.0000 ( 24155 PWs)   bands (ev):

   -46.4326  -4.7766  -4.0632  -3.9290  -3.9222  -3.7685  -3.7324  -3.6432
    -3.6084  -3.4998  -3.4696  -3.3888  -3.3401  -3.3142  -3.2497  -3.1126
    -3.0517  -3.0162  -2.8432  -2.7952  -2.6929  -2.6467  -2.5794  -2.5313
    -2.4062  -2.3206  -2.2906  -2.0994  -2.0209  -2.0112  -1.9792  -1.9216
    -1.8727  -1.8395  -1.8204  -1.7706  -1.7375  -1.7083  -1.6608  -1.6577
    -1.6140  -1.5753  -1.5489  -1.5001  -1.4742  -1.3564  -1.1846  -1.1392
    -0.4858   1.0871   2.4059   3.1812   3.2743   3.8260   4.0818   4.3375
     4.9018   5.3638   5.5408   5.6998   5.8969

          k = 0.2506 0.1437 0.0000 ( 24139 PWs)   bands (ev):

   -46.4326  -4.6401  -4.0634  -3.9013  -3.8626  -3.8300  -3.7405  -3.6564
    -3.5858  -3.4960  -3.4529  -3.3956  -3.3392  -3.3314  -3.1629  -3.1031
    -3.0679  -2.9295  -2.8757  -2.8537  -2.7547  -2.5872  -2.5762  -2.4686
    -2.3922  -2.3396  -2.1753  -2.0972  -2.0883  -1.9951  -1.9276  -1.9196
    -1.8521  -1.8501  -1.8302  -1.7720  -1.7382  -1.7323  -1.6513  -1.6476
    -1.6359  -1.5707  -1.5557  -1.5148  -1.4248  -1.3569  -1.3278  -1.0619
    -0.3838   1.2078   2.1916   2.5467   3.1477   3.7633   3.9205   4.4390
     5.0018   5.0649   5.6167   5.8104   5.8684

          k = 0.2506 0.2882 0.0000 ( 24102 PWs)   bands (ev):

   -46.4325  -4.2987  -4.0246  -3.9132  -3.8278  -3.7523  -3.7000  -3.6756
    -3.6181  -3.5165  -3.4603  -3.3806  -3.3500  -3.2585  -3.1724  -3.1007
    -3.0876  -2.9919  -2.7941  -2.7666  -2.6652  -2.5457  -2.4645  -2.3998
    -2.3366  -2.2662  -2.1716  -2.1393  -2.1024  -2.0034  -1.9877  -1.9442
    -1.9307  -1.8768  -1.8296  -1.7938  -1.7576  -1.7370  -1.7030  -1.6360
    -1.5904  -1.5742  -1.4751  -1.4247  -1.4103  -1.3045  -1.2278  -1.1098
    -0.0006   1.2917   1.5897   2.2547   2.3814   2.9058   3.4588   3.8225
     4.2031   4.9330   5.2568   5.5092   6.1598

          k = 0.2506-0.7231 0.0000 ( 24086 PWs)   bands (ev):

   -46.4325  -4.0045  -3.9440  -3.9050  -3.8753  -3.8179  -3.6551  -3.6085
    -3.5572  -3.4413  -3.3995  -3.3670  -3.3513  -3.2112  -3.1957  -3.1234
    -3.0608  -2.9704  -2.8073  -2.6794  -2.6145  -2.5257  -2.4519  -2.3634
    -2.3028  -2.2732  -2.1955  -2.1280  -2.1098  -2.0184  -1.9974  -1.9369
    -1.9218  -1.8806  -1.8760  -1.8296  -1.7846  -1.7674  -1.6688  -1.6389
    -1.5645  -1.5338  -1.3696  -1.2911  -1.2521  -1.1907  -1.1314  -0.7907
     0.5173   0.6032   0.7494   1.6807   1.8820   2.3361   3.2471   3.4409
     3.6403   4.3199   4.7357   5.3006   5.9185

          k = 0.2506-0.5786 0.0000 ( 24049 PWs)   bands (ev):

   -46.4325  -3.9950  -3.9627  -3.8694  -3.8545  -3.7182  -3.6640  -3.5712
    -3.5175  -3.4505  -3.4249  -3.3817  -3.2818  -3.2297  -3.1271  -3.1155
    -3.0037  -2.9506  -2.8815  -2.7579  -2.5889  -2.5034  -2.4529  -2.4142
    -2.2839  -2.2359  -2.1682  -2.1282  -2.0782  -2.0341  -2.0239  -1.9848
    -1.9527  -1.9121  -1.8761  -1.8211  -1.8000  -1.7178  -1.6455  -1.6159
    -1.4448  -1.3631  -1.3238  -1.1839  -1.1212  -1.0896  -0.9092  -0.7872
     0.0918   0.3283   0.4077   1.4214   2.0083   2.0545   2.9932   3.3027
     3.6377   4.2111   4.5252   4.8420   6.0220

          k = 0.2506-0.4341 0.0000 ( 24068 PWs)   bands (ev):

   -46.4325  -4.0039  -3.9446  -3.9051  -3.8752  -3.8178  -3.6549  -3.6086
    -3.5574  -3.4415  -3.3985  -3.3671  -3.3509  -3.2108  -3.1960  -3.1234
    -3.0608  -2.9697  -2.8083  -2.6795  -2.6149  -2.5260  -2.4518  -2.3617
    -2.3033  -2.2731  -2.1952  -2.1281  -2.1101  -2.0180  -1.9979  -1.9373
    -1.9216  -1.8800  -1.8754  -1.8292  -1.7852  -1.7674  -1.6685  -1.6407
    -1.5644  -1.5328  -1.3696  -1.2911  -1.2520  -1.1907  -1.1312  -0.7911
     0.5147   0.6026   0.7504   1.6775   1.8806   2.3355   3.2452   3.4472
     3.6400   4.3137   4.7383   5.3208   5.9155

          k = 0.2506-0.2897 0.0000 ( 24092 PWs)   bands (ev):

   -46.4325  -4.2984  -4.0245  -3.9132  -3.8278  -3.7519  -3.7001  -3.6755
    -3.6182  -3.5165  -3.4611  -3.3804  -3.3498  -3.2596  -3.1718  -3.0995
    -3.0876  -2.9917  -2.7942  -2.7660  -2.6655  -2.5449  -2.4637  -2.3987
    -2.3372  -2.2661  -2.1722  -2.1389  -2.1034  -2.0041  -1.9872  -1.9452
    -1.9306  -1.8776  -1.8292  -1.7934  -1.7576  -1.7373  -1.7032  -1.6359
    -1.5898  -1.5740  -1.4753  -1.4247  -1.4103  -1.3049  -1.2276  -1.1098
    -0.0022   1.2901   1.5874   2.2500   2.3834   2.9036   3.4582   3.8275
     4.1970   4.9383   5.2720   5.5085   6.1600

          k = 0.3760-0.2178 0.0000 ( 24082 PWs)   bands (ev):

   -46.4325  -4.1643  -4.0455  -4.0145  -3.7567  -3.6587  -3.6533  -3.5730
    -3.5678  -3.4655  -3.4350  -3.4203  -3.3144  -3.2572  -3.1635  -3.1119
    -3.0170  -2.9506  -2.8840  -2.7902  -2.7609  -2.5821  -2.5575  -2.4662
    -2.3917  -2.3459  -2.1605  -2.1366  -2.1116  -1.9975  -1.9936  -1.9634
    -1.8781  -1.8181  -1.7832  -1.7596  -1.7473  -1.7184  -1.6497  -1.6145
    -1.5902  -1.5270  -1.4801  -1.4058  -1.3049  -1.2807  -1.1365  -1.0228
     0.2411   0.4406   1.3615   1.8732   2.7515   2.8204   3.1875   3.9752
     4.3437   4.8680   5.5822   5.7053   6.1062

          k = 0.3760-0.0734 0.0000 ( 24092 PWs)   bands (ev):

   -46.4325  -4.2984  -4.0245  -3.9132  -3.8278  -3.7519  -3.7001  -3.6755
    -3.6182  -3.5165  -3.4611  -3.3804  -3.3498  -3.2596  -3.1718  -3.0995
    -3.0876  -2.9917  -2.7942  -2.7660  -2.6655  -2.5449  -2.4637  -2.3987
    -2.3372  -2.2661  -2.1722  -2.1389  -2.1034  -2.0041  -1.9872  -1.9452
    -1.9306  -1.8776  -1.8292  -1.7934  -1.7576  -1.7373  -1.7032  -1.6359
    -1.5898  -1.5740  -1.4753  -1.4247  -1.4103  -1.3049  -1.2277  -1.1098
    -0.0022   1.2901   1.5874   2.2500   2.3834   2.9036   3.4582   3.8275
     4.1970   4.9383   5.2720   5.5085   6.1598

          k = 0.3760 0.0711 0.0000 ( 24099 PWs)   bands (ev):

   -46.4325  -4.2985  -4.0246  -3.9132  -3.8278  -3.7519  -3.7003  -3.6756
    -3.6184  -3.5165  -3.4604  -3.3792  -3.3497  -3.2599  -3.1724  -3.0993
    -3.0887  -2.9914  -2.7953  -2.7663  -2.6661  -2.5452  -2.4642  -2.3994
    -2.3368  -2.2660  -2.1715  -2.1393  -2.1028  -2.0040  -1.9875  -1.9434
    -1.9310  -1.8760  -1.8295  -1.7929  -1.7582  -1.7374  -1.7041  -1.6356
    -1.5898  -1.5740  -1.4754  -1.4245  -1.4102  -1.3049  -1.2276  -1.1099
    -0.0015   1.2916   1.5882   2.2497   2.3859   2.9040   3.4546   3.8304
     4.1997   4.9335   5.2591   5.5150   6.1146

          k = 0.3760 0.2156 0.0000 ( 24088 PWs)   bands (ev):

   -46.4325  -4.1645  -4.0454  -4.0146  -3.7566  -3.6588  -3.6531  -3.5731
    -3.5681  -3.4654  -3.4353  -3.4199  -3.3128  -3.2571  -3.1643  -3.1121
    -3.0172  -2.9516  -2.8848  -2.7905  -2.7642  -2.5826  -2.5584  -2.4661
    -2.3917  -2.3448  -2.1600  -2.1370  -2.1102  -1.9963  -1.9935  -1.9630
    -1.8779  -1.8170  -1.7833  -1.7600  -1.7472  -1.7189  -1.6497  -1.6150
    -1.5894  -1.5274  -1.4801  -1.4058  -1.3051  -1.2805  -1.1356  -1.0229
     0.2434   0.4412   1.3642   1.8776   2.7556   2.8194   3.1840   3.9814
     4.3408   4.8472   5.5764   5.7046   6.0705

          k = 0.3760-0.7957 0.0000 ( 24065 PWs)   bands (ev):

   -46.4325  -4.1019  -4.0556  -3.8611  -3.7313  -3.6541  -3.6318  -3.5611
    -3.5450  -3.4833  -3.4375  -3.3987  -3.2893  -3.2246  -3.1384  -3.0694
    -3.0264  -2.9587  -2.8744  -2.7993  -2.7357  -2.5983  -2.5482  -2.3686
    -2.3551  -2.2792  -2.2286  -2.1643  -2.1108  -2.0236  -2.0009  -1.9348
    -1.9081  -1.8545  -1.8177  -1.7963  -1.7506  -1.7307  -1.7008  -1.6609
    -1.5729  -1.3991  -1.3697  -1.3146  -1.2162  -1.1533  -1.0772  -0.6177
    -0.2707   0.6108   0.9818   1.6953   2.1349   2.4450   3.1558   3.4508
     3.8045   4.7416   4.8716   5.6826   6.0783

          k = 0.3760-0.6512 0.0000 ( 24049 PWs)   bands (ev):

   -46.4325  -3.9950  -3.9627  -3.8694  -3.8545  -3.7182  -3.6640  -3.5712
    -3.5175  -3.4505  -3.4249  -3.3817  -3.2818  -3.2297  -3.1271  -3.1155
    -3.0037  -2.9506  -2.8815  -2.7579  -2.5889  -2.5034  -2.4529  -2.4142
    -2.2839  -2.2359  -2.1682  -2.1282  -2.0782  -2.0341  -2.0239  -1.9848
    -1.9527  -1.9121  -1.8761  -1.8211  -1.8000  -1.7178  -1.6455  -1.6159
    -1.4448  -1.3631  -1.3238  -1.1839  -1.1212  -1.0896  -0.9092  -0.7872
     0.0918   0.3283   0.4077   1.4214   2.0083   2.0545   2.9932   3.3027
     3.6377   4.2111   4.5252   4.8420   6.0220

          k = 0.3760-0.5067 0.0000 ( 24032 PWs)   bands (ev):

   -46.4324  -3.9950  -3.9632  -3.8693  -3.8542  -3.7181  -3.6640  -3.5711
    -3.5177  -3.4499  -3.4244  -3.3823  -3.2820  -3.2301  -3.1266  -3.1147
    -3.0040  -2.9507  -2.8816  -2.7579  -2.5878  -2.5032  -2.4534  -2.4134
    -2.2840  -2.2360  -2.1683  -2.1293  -2.0771  -2.0349  -2.0230  -1.9846
    -1.9530  -1.9119  -1.8765  -1.8212  -1.8000  -1.7180  -1.6453  -1.6156
    -1.4448  -1.3632  -1.3239  -1.1838  -1.1209  -1.0896  -0.9100  -0.7879
     0.0900   0.3286   0.4078   1.4210   2.0073   2.0519   2.9960   3.2996
     3.6399   4.2050   4.5256   4.8649   6.0046

          k = 0.3760-0.3623 0.0000 ( 24075 PWs)   bands (ev):

   -46.4325  -4.1019  -4.0558  -3.8609  -3.7316  -3.6540  -3.6318  -3.5608
    -3.5451  -3.4836  -3.4377  -3.3985  -3.2891  -3.2241  -3.1382  -3.0687
    -3.0263  -2.9593  -2.8741  -2.7998  -2.7332  -2.5980  -2.5462  -2.3685
    -2.3559  -2.2796  -2.2289  -2.1637  -2.1110  -2.0239  -2.0027  -1.9348
    -1.9083  -1.8550  -1.8179  -1.7963  -1.7505  -1.7299  -1.7006  -1.6612
    -1.5728  -1.3992  -1.3703  -1.3147  -1.2163  -1.1532  -1.0771  -0.6181
    -0.2731   0.6104   0.9776   1.6964   2.1272   2.4446   3.1591   3.4532
     3.7995   4.7502   4.8880   5.6831   6.0796

          k =-0.5013 0.2904 0.0000 ( 24044 PWs)   bands (ev):

   -46.4325  -4.1691  -4.1095  -3.7459  -3.6582  -3.6398  -3.6019  -3.5627
    -3.4714  -3.4379  -3.3672  -3.3129  -3.2699  -3.2439  -3.2207  -3.1791
    -3.0809  -2.9229  -2.9218  -2.7985  -2.7607  -2.6676  -2.5898  -2.5112
    -2.4125  -2.3731  -2.2227  -2.1323  -2.0421  -2.0253  -2.0090  -1.9808
    -1.8612  -1.8476  -1.8262  -1.7573  -1.7362  -1.7186  -1.7046  -1.6253
    -1.5193  -1.4413  -1.4270  -1.2123  -1.1521  -0.9892  -0.9842  -0.8294
    -0.1585  -0.0244   1.2272   1.5176   2.4450   2.5181   3.1480   3.7751
     4.1049   4.6357   5.6372   5.7199   5.9718

          k =-0.5013 0.4349 0.0000 ( 24075 PWs)   bands (ev):

   -46.4325  -4.1019  -4.0558  -3.8609  -3.7316  -3.6540  -3.6318  -3.5608
    -3.5451  -3.4836  -3.4377  -3.3985  -3.2891  -3.2241  -3.1382  -3.0687
    -3.0263  -2.9593  -2.8741  -2.7998  -2.7332  -2.5980  -2.5462  -2.3685
    -2.3559  -2.2796  -2.2289  -2.1637  -2.1110  -2.0239  -2.0027  -1.9348
    -1.9083  -1.8550  -1.8179  -1.7963  -1.7505  -1.7299  -1.7006  -1.6612
    -1.5728  -1.3992  -1.3703  -1.3147  -1.2163  -1.1532  -1.0771  -0.6181
    -0.2731   0.6104   0.9776   1.6964   2.1272   2.4446   3.1591   3.4532
     3.7995   4.7502   4.8880   5.6831   6.0796

          k =-0.5013 0.5793 0.0000 ( 24068 PWs)   bands (ev):

   -46.4325  -4.0039  -3.9446  -3.9051  -3.8752  -3.8178  -3.6549  -3.6086
    -3.5574  -3.4415  -3.3985  -3.3671  -3.3509  -3.2108  -3.1960  -3.1234
    -3.0608  -2.9697  -2.8083  -2.6795  -2.6149  -2.5260  -2.4518  -2.3617
    -2.3033  -2.2731  -2.1952  -2.1281  -2.1101  -2.0181  -1.9979  -1.9373
    -1.9216  -1.8800  -1.8754  -1.8292  -1.7852  -1.7674  -1.6685  -1.6407
    -1.5644  -1.5328  -1.3696  -1.2911  -1.2520  -1.1907  -1.1312  -0.7911
     0.5147   0.6026   0.7504   1.6775   1.8806   2.3355   3.2452   3.4472
     3.6400   4.3138   4.7383   5.3208   5.9155

          k =-0.5013 0.7238 0.0000 ( 24070 PWs)   bands (ev):

   -46.4325  -4.1019  -4.0556  -3.8608  -3.7316  -3.6542  -3.6320  -3.5608
    -3.5451  -3.4835  -3.4378  -3.3980  -3.2887  -3.2246  -3.1386  -3.0689
    -3.0271  -2.9595  -2.8736  -2.8003  -2.7361  -2.5984  -2.5474  -2.3686
    -2.3553  -2.2800  -2.2281  -2.1640  -2.1105  -2.0228  -2.0015  -1.9346
    -1.9084  -1.8545  -1.8177  -1.7957  -1.7509  -1.7308  -1.7006  -1.6614
    -1.5729  -1.3989  -1.3695  -1.3146  -1.2164  -1.1530  -1.0773  -0.6177
    -0.2708   0.6106   0.9809   1.6951   2.1340   2.4439   3.1596   3.4487
     3.8052   4.7396   4.8740   5.6764   6.0893

          k =-0.5013-0.2874 0.0000 ( 24060 PWs)   bands (ev):

   -46.4325  -4.1691  -4.1094  -3.7459  -3.6574  -3.6400  -3.6019  -3.5625
    -3.4713  -3.4380  -3.3681  -3.3130  -3.2697  -3.2440  -3.2207  -3.1792
    -3.0804  -2.9262  -2.9223  -2.7994  -2.7639  -2.6674  -2.5903  -2.5114
    -2.4123  -2.3732  -2.2198  -2.1335  -2.0419  -2.0240  -2.0086  -1.9804
    -1.8606  -1.8476  -1.8258  -1.7576  -1.7358  -1.7187  -1.7056  -1.6253
    -1.5197  -1.4412  -1.4271  -1.2124  -1.1520  -0.9894  -0.9826  -0.8288
    -0.1554  -0.0241   1.2304   1.5215   2.4437   2.5268   3.1404   3.7818
     4.1026   4.6111   5.6390   5.7203   5.9694

     the Fermi energy is     1.7370 ev

!    total energy              =    -773.36051769 Ry
     estimated scf accuracy    <       0.00000020 Ry
     smearing contrib. (-TS)   =       0.00137392 Ry
     internal energy E=F+TS    =    -773.36189160 Ry

     The total energy is F=E-TS. E is the sum of the following terms:
     one-electron contribution =   -7537.40817482 Ry
     hartree contribution      =    3838.26725650 Ry
     xc contribution           =    -204.25928259 Ry
     ewald contribution        =    3130.26598624 Ry
     DFT-D3 Dispersion         =      -0.22767693 Ry

     convergence has been achieved in  11 iterations

     negative rho (up, down):  2.387E-05 0.000E+00

     Forces acting on atoms (cartesian axes, Ry/au):

     atom    1 type  2   force =    -0.00000027    0.00000044   -0.00131531
     atom    2 type  2   force =     0.00144441   -0.00083549    0.02110517
     atom    3 type  2   force =    -0.00129385    0.00075012   -0.01769400
     atom    4 type  2   force =     0.00018242   -0.00010606    0.00199264
     atom    5 type  2   force =     0.00014820   -0.00008553    0.00229582
     atom    6 type  2   force =     0.00004727   -0.00002671    0.00016940
     atom    7 type  2   force =     0.00018511   -0.00010621    0.00280156
     atom    8 type  2   force =    -0.00055485    0.00031994   -0.00811943
     atom    9 type  2   force =     0.00124756   -0.00072388    0.01741859
     atom   10 type  1   force =    -0.00140600    0.00081339   -0.01865444
     The non-local contrib.  to forces
     atom    1 type  2   force =     0.00198222   -0.00114826    0.01839489
     atom    2 type  2   force =     0.00333212   -0.00192838    0.05925864
     atom    3 type  2   force =     0.00018696   -0.00010724   -0.00095786
     atom    4 type  2   force =     0.00132333   -0.00076151    0.02098311
     atom    5 type  2   force =    -0.00085077    0.00049338   -0.01164093
     atom    6 type  2   force =     0.00143782   -0.00083384    0.02137633
     atom    7 type  2   force =    -0.00273471    0.00158502   -0.03799421
     atom    8 type  2   force =    -0.00283196    0.00163956   -0.03840067
     atom    9 type  2   force =    -0.01207463    0.00699580   -0.16918142
     atom   10 type  1   force =     0.00440154   -0.00254993    0.05566016
     The ionic contribution  to forces
     atom    1 type  2   force =     6.18124730   -3.58103816   85.53228790
     atom    2 type  2   force =     7.67181923   -4.44462543  106.98220830
     atom    3 type  2   force =     1.79429875   -1.03955467   24.93546159
     atom    4 type  2   force =     4.31239750   -2.49836925   59.94669350
     atom    5 type  2   force =    -2.41134050    1.39700337  -33.49904033
     atom    6 type  2   force =    -0.29156155    0.16891657   -4.05420763
     atom    7 type  2   force =    -6.68505235    3.87294878  -92.87175828
     atom    8 type  2   force =    -4.72215228    2.73575230  -65.60213347
     atom    9 type  2   force =    -8.17481361    4.73603399 -113.56813575
     atom   10 type  1   force =     2.32515751   -1.34706750   32.19862418
     The local contribution  to forces
     atom    1 type  2   force =    -6.18312437    3.58212413  -85.55115115
     atom    2 type  2   force =    -7.67310677    4.44537501 -107.01001512
     atom    3 type  2   force =    -1.79574295    1.04039191  -24.95163027
     atom    4 type  2   force =    -4.31330805    2.49889918  -59.96250508
     atom    5 type  2   force =     2.41214393   -1.39746707   33.51027095
     atom    6 type  2   force =     0.29015002   -0.16810015    4.03269629
     atom    7 type  2   force =     6.68762066   -3.87443560   92.90766034
     atom    8 type  2   force =     4.72389922   -2.73676614   65.62504358
     atom    9 type  2   force =     8.18777409   -4.74354301  113.74970712
     atom   10 type  1   force =    -2.33075456    1.35031028  -32.27118468
     The core correction contribution to forces
     atom    1 type  2   force =    -0.00003035    0.00001743    0.00042102
     atom    2 type  2   force =    -0.00036154    0.00020968   -0.00619938
     atom    3 type  2   force =     0.00014793   -0.00008560    0.00206631
     atom    4 type  2   force =    -0.00010091    0.00005860   -0.00141424
     atom    5 type  2   force =    -0.00004421    0.00002562   -0.00060847
     atom    6 type  2   force =     0.00002436   -0.00001427    0.00033891
     atom    7 type  2   force =     0.00023160   -0.00013419    0.00322630
     atom    8 type  2   force =     0.00020984   -0.00012158    0.00291048
     atom    9 type  2   force =     0.00031671   -0.00018352    0.00438823
     atom   10 type  1   force =     0.00000000    0.00000000    0.00000000
     The Hubbard contrib.    to forces
     atom    1 type  2   force =     0.00000000    0.00000000    0.00000000
     atom    2 type  2   force =     0.00000000    0.00000000    0.00000000
     atom    3 type  2   force =     0.00000000    0.00000000    0.00000000
     atom    4 type  2   force =     0.00000000    0.00000000    0.00000000
     atom    5 type  2   force =     0.00000000    0.00000000    0.00000000
     atom    6 type  2   force =     0.00000000    0.00000000    0.00000000
     atom    7 type  2   force =     0.00000000    0.00000000    0.00000000
     atom    8 type  2   force =     0.00000000    0.00000000    0.00000000
     atom    9 type  2   force =     0.00000000    0.00000000    0.00000000
     atom   10 type  1   force =     0.00000000    0.00000000    0.00000000
     The SCF correction term to forces
     atom    1 type  2   force =    -0.00003289    0.00002198   -0.00048693
     atom    2 type  2   force =    -0.00008850    0.00004775   -0.00117262
     atom    3 type  2   force =    -0.00001500    0.00000848   -0.00029683
     atom    4 type  2   force =    -0.00001148   -0.00000037   -0.00010480
     atom    5 type  2   force =    -0.00000136   -0.00000011   -0.00004723
     atom    6 type  2   force =    -0.00003747    0.00002576   -0.00052667
     atom    7 type  2   force =     0.00003055   -0.00001740    0.00041311
     atom    8 type  2   force =     0.00002660   -0.00001298    0.00036708
     atom    9 type  2   force =     0.00000434   -0.00000254    0.00006273
     atom   10 type  1   force =    -0.00001020    0.00000555   -0.00011844

     DFT-D3 dispersion contribution to forces:
     atom    1 type  2   force =    -0.00004406    0.00002547   -0.00082017
     atom    2 type  2   force =    -0.00015201    0.00008802   -0.00301379
     atom    3 type  2   force =    -0.00017144    0.00009939   -0.00237608
     atom    4 type  2   force =    -0.00011985    0.00006944   -0.00169898
     atom    5 type  2   force =     0.00023922   -0.00013858    0.00332269
     atom    6 type  2   force =     0.00003222   -0.00001864    0.00045302
     atom    7 type  2   force =     0.00008747   -0.00005067    0.00121516
     atom    8 type  2   force =     0.00029185   -0.00016908    0.00405443
     atom    9 type  2   force =     0.00003876   -0.00002246    0.00053853
     atom   10 type  1   force =    -0.00020217    0.00011713   -0.00167480

     Total force =     0.038794     Total SCF correction =     0.001527


     Computing stress (Cartesian axis) and pressure


     negative rho (up, down):  2.387E-05 0.000E+00
          total   stress  (Ry/bohr**3)                   (kbar)     P=      -20.41
  -0.00015768  -0.00000017   0.00000401          -23.20       -0.03        0.59
  -0.00000017  -0.00015788  -0.00000232           -0.03      -23.23       -0.34
   0.00000401  -0.00000232  -0.00010064            0.59       -0.34      -14.80


     BFGS Geometry Optimization
     Energy error            =      0.0E+00 Ry
     Gradient error          =      2.1E-02 Ry/Bohr

     number of scf cycles    =   1
     number of bfgs steps    =   0

     energy             new  =    -773.3605176855 Ry

     new trust radius        =       0.0211710303 bohr
     new conv_thr            =       0.0000010000 Ry


ATOMIC_POSITIONS (angstrom)
Ag            4.4966091728        3.2579218502       16.3768802285
Ag            4.5471463499        0.5226335051       17.0802846159
Ag            4.3514793134        0.6360053893       14.3613977855
Ag            2.0954033202        1.9430429394       15.6311957256
Ag            1.8837304930        2.0656821729       12.6909140021
Ag            4.2916862646        3.3766557141       13.5303197168
Ag            4.0860498748        3.4957902241       10.6739072961
Ag            4.1461610491        0.7549543273       11.5086591303
Ag            1.6786029233        2.1845209566        9.8411113273
Li            4.6393328705        3.1752348828       19.0592447385



     Writing config-only to output data dir ./Ag_mp-2646971_111_ontop_0/Ag_mp-2646971_111_ontop_0.save/
     NEW-OLD atomic charge density approx. for the potential

     negative rho (up, down):  2.460E-05 0.000E+00

     total cpu time spent up to now is       25.5 secs

     per-process dynamical memory:   197.3 Mb

     Self-consistent Calculation

     iteration #  1     ecut=    55.00 Ry     beta= 0.30
     Davidson diagonalization with overlap
     ethr =  1.00E-06,  avg # of iterations =  5.4

     Threshold (ethr) on eigenvalues was too large:
     Diagonalizing with lowered threshold

     Davidson diagonalization with overlap
     ethr =  2.18E-08,  avg # of iterations =  5.2

     negative rho (up, down):  2.435E-05 0.000E+00

     total cpu time spent up to now is       29.7 secs

     total energy              =    -773.36194664 Ry
     estimated scf accuracy    <       0.00002906 Ry

     iteration #  2     ecut=    55.00 Ry     beta= 0.30
     Davidson diagonalization with overlap
     ethr =  2.85E-08,  avg # of iterations =  2.0

     negative rho (up, down):  2.695E-05 0.000E+00

     total cpu time spent up to now is       30.7 secs

     total energy              =    -773.36194048 Ry
     estimated scf accuracy    <       0.00012714 Ry

     iteration #  3     ecut=    55.00 Ry     beta= 0.30
     Davidson diagonalization with overlap
     ethr =  2.85E-08,  avg # of iterations =  1.6

     negative rho (up, down):  2.653E-05 0.000E+00

     total cpu time spent up to now is       31.7 secs

     total energy              =    -773.36194872 Ry
     estimated scf accuracy    <       0.00007203 Ry

     iteration #  4     ecut=    55.00 Ry     beta= 0.30
     Davidson diagonalization with overlap
     ethr =  2.85E-08,  avg # of iterations =  1.0

     negative rho (up, down):  2.525E-05 0.000E+00

     total cpu time spent up to now is       32.6 secs

     total energy              =    -773.36195210 Ry
     estimated scf accuracy    <       0.00000208 Ry

     iteration #  5     ecut=    55.00 Ry     beta= 0.30
     Davidson diagonalization with overlap
     ethr =  2.04E-09,  avg # of iterations =  2.0

     negative rho (up, down):  2.492E-05 0.000E+00

     total cpu time spent up to now is       33.5 secs

     total energy              =    -773.36195238 Ry
     estimated scf accuracy    <       0.00000203 Ry

     iteration #  6     ecut=    55.00 Ry     beta= 0.30
     Davidson diagonalization with overlap
     ethr =  1.99E-09,  avg # of iterations =  1.7

     negative rho (up, down):  2.416E-05 0.000E+00

     total cpu time spent up to now is       34.4 secs

     End of self-consistent calculation

          k = 0.0000 0.0000 0.0000 ( 24179 PWs)   bands (ev):

   -46.4166  -5.2209  -4.1776  -4.0950  -4.0950  -3.6114  -3.6112  -3.5691
    -3.4184  -3.4181  -3.4143  -3.3441  -3.3440  -3.1977  -3.1659  -3.1655
    -3.1165  -3.1157  -3.0094  -3.0094  -2.9181  -2.8224  -2.8214  -2.6603
    -2.6115  -2.5466  -2.5466  -2.1647  -1.9832  -1.8640  -1.8595  -1.8266
    -1.8261  -1.7939  -1.7922  -1.7288  -1.7285  -1.6808  -1.6807  -1.6212
    -1.6211  -1.5445  -1.5444  -1.4372  -1.3110  -1.3109  -1.1311  -1.1311
    -0.7444   0.7364   2.0583   3.4953   4.5206   5.3057   5.3875   6.1855
     6.2286   6.6637   6.6781   6.6787   6.7632

          k = 0.0000 0.1445 0.0000 ( 24156 PWs)   bands (ev):

   -46.4166  -5.0668  -4.1303  -4.0332  -4.0327  -3.6912  -3.6280  -3.5765
    -3.5598  -3.4852  -3.4279  -3.3995  -3.3144  -3.3085  -3.2218  -3.0795
    -3.0679  -3.0116  -2.9782  -2.8892  -2.8570  -2.7581  -2.7235  -2.5822
    -2.5303  -2.4802  -2.4640  -2.1238  -1.9950  -1.9599  -1.9127  -1.8438
    -1.8311  -1.7913  -1.7504  -1.7419  -1.7245  -1.6985  -1.6820  -1.6680
    -1.6510  -1.5628  -1.5600  -1.4512  -1.3821  -1.3221  -1.2004  -1.1082
    -0.6722   0.8501   2.1777   3.6131   4.2945   4.6481   5.0266   5.1182
     5.4301   5.5332   5.9414   6.1264   6.2853

          k = 0.0000 0.2889 0.0000 ( 24139 PWs)   bands (ev):

   -46.4166  -4.6400  -4.0593  -3.8967  -3.8594  -3.8296  -3.7465  -3.6545
    -3.5856  -3.5003  -3.4522  -3.3904  -3.3426  -3.3340  -3.1627  -3.1074
    -3.0710  -2.9291  -2.8791  -2.8556  -2.7532  -2.5880  -2.5747  -2.4738
    -2.3976  -2.3436  -2.1773  -2.0980  -2.0930  -1.9969  -1.9317  -1.9220
    -1.8524  -1.8511  -1.8341  -1.7739  -1.7424  -1.7358  -1.6551  -1.6497
    -1.6375  -1.5729  -1.5574  -1.5177  -1.4269  -1.3587  -1.3304  -1.0642
    -0.3889   1.2102   2.1901   2.5560   3.1444   3.7613   3.9316   4.4347
     4.9967   5.0760   5.6248   5.8266   5.8680

          k = 0.0000 0.4334 0.0000 ( 24088 PWs)   bands (ev):

   -46.4165  -4.1612  -4.0437  -4.0143  -3.7526  -3.6548  -3.6526  -3.5756
    -3.5673  -3.4694  -3.4359  -3.4164  -3.3161  -3.2603  -3.1639  -3.1149
    -3.0171  -2.9564  -2.8907  -2.7943  -2.7574  -2.5798  -2.5599  -2.4700
    -2.3956  -2.3479  -2.1614  -2.1444  -2.1128  -1.9961  -1.9944  -1.9679
    -1.8831  -1.8203  -1.7886  -1.7603  -1.7507  -1.7218  -1.6513  -1.6183
    -1.5913  -1.5275  -1.4825  -1.4088  -1.3068  -1.2843  -1.1375  -1.0251
     0.2380   0.4390   1.3615   1.8797   2.7490   2.8174   3.1950   3.9907
     4.3359   4.8587   5.5834   5.7040   6.0739

          k = 0.0000-0.5778 0.0000 ( 24060 PWs)   bands (ev):

   -46.4165  -4.1670  -4.1079  -3.7436  -3.6545  -3.6378  -3.5919  -3.5643
    -3.4693  -3.4390  -3.3673  -3.3181  -3.2733  -3.2467  -3.2239  -3.1845
    -3.0881  -2.9302  -2.9166  -2.8012  -2.7550  -2.6740  -2.5890  -2.5178
    -2.4122  -2.3756  -2.2244  -2.1423  -2.0441  -2.0237  -2.0141  -1.9799
    -1.8646  -1.8494  -1.8288  -1.7584  -1.7405  -1.7239  -1.7080  -1.6285
    -1.5194  -1.4428  -1.4317  -1.2148  -1.1552  -0.9914  -0.9862  -0.8288
    -0.1587  -0.0248   1.2231   1.5151   2.4418   2.5263   3.1493   3.7962
     4.0979   4.6221   5.6371   5.7276   5.9655

          k = 0.1253-0.0726 0.0000 ( 24146 PWs)   bands (ev):

   -46.4166  -5.0668  -4.1300  -4.0330  -4.0329  -3.6911  -3.6280  -3.5763
    -3.5598  -3.4850  -3.4280  -3.4002  -3.3157  -3.3082  -3.2216  -3.0802
    -3.0674  -3.0113  -2.9782  -2.8886  -2.8567  -2.7555  -2.7240  -2.5822
    -2.5312  -2.4807  -2.4640  -2.1242  -1.9964  -1.9594  -1.9130  -1.8425
    -1.8323  -1.7902  -1.7507  -1.7415  -1.7247  -1.6981  -1.6819  -1.6682
    -1.6509  -1.5628  -1.5600  -1.4512  -1.3822  -1.3220  -1.2005  -1.1082
    -0.6725   0.8498   2.1777   3.6130   4.2913   4.6493   5.0316   5.1063
     5.4151   5.5532   5.9549   6.1216   6.2821

          k = 0.1253 0.0719 0.0000 ( 24156 PWs)   bands (ev):

   -46.4166  -5.0668  -4.1303  -4.0332  -4.0327  -3.6912  -3.6280  -3.5765
    -3.5598  -3.4852  -3.4279  -3.3995  -3.3144  -3.3085  -3.2218  -3.0795
    -3.0679  -3.0116  -2.9782  -2.8892  -2.8570  -2.7581  -2.7235  -2.5822
    -2.5303  -2.4802  -2.4640  -2.1238  -1.9950  -1.9599  -1.9127  -1.8438
    -1.8311  -1.7913  -1.7504  -1.7419  -1.7245  -1.6985  -1.6820  -1.6680
    -1.6510  -1.5628  -1.5600  -1.4512  -1.3821  -1.3221  -1.2004  -1.1082
    -0.6722   0.8501   2.1777   3.6131   4.2945   4.6481   5.0266   5.1181
     5.4301   5.5332   5.9414   6.1264   6.2853

          k = 0.1253 0.2163 0.0000 ( 24149 PWs)   bands (ev):

   -46.4166  -4.7768  -4.0593  -3.9259  -3.9195  -3.7727  -3.7285  -3.6438
    -3.6124  -3.4960  -3.4689  -3.3917  -3.3393  -3.3159  -3.2513  -3.1147
    -3.0574  -3.0175  -2.8429  -2.7924  -2.6952  -2.6495  -2.5824  -2.5338
    -2.4126  -2.3245  -2.2943  -2.1043  -2.0163  -2.0110  -1.9817  -1.9248
    -1.8761  -1.8436  -1.8246  -1.7717  -1.7396  -1.7096  -1.6645  -1.6602
    -1.6149  -1.5794  -1.5522  -1.5034  -1.4750  -1.3584  -1.1865  -1.1419
    -0.4901   1.0903   2.4154   3.1837   3.2708   3.8373   4.0857   4.3280
     4.9085   5.3746   5.5426   5.7328   5.8567

          k = 0.1253 0.3608 0.0000 ( 24102 PWs)   bands (ev):

   -46.4166  -4.2974  -4.0210  -3.9101  -3.8271  -3.7485  -3.7009  -3.6779
    -3.6184  -3.5181  -3.4604  -3.3805  -3.3485  -3.2620  -3.1740  -3.1030
    -3.0882  -2.9972  -2.7942  -2.7642  -2.6663  -2.5479  -2.4680  -2.4016
    -2.3398  -2.2695  -2.1736  -2.1410  -2.1063  -2.0059  -1.9902  -1.9483
    -1.9348  -1.8800  -1.8305  -1.7964  -1.7604  -1.7410  -1.7052  -1.6383
    -1.5926  -1.5765  -1.4754  -1.4288  -1.4118  -1.3077  -1.2303  -1.1119
    -0.0061   1.2896   1.5924   2.2533   2.3779   2.9144   3.4548   3.8196
     4.2129   4.9313   5.2645   5.5199   6.1720

          k = 0.1253-0.6505 0.0000 ( 24065 PWs)   bands (ev):

   -46.4165  -4.0990  -4.0539  -3.8601  -3.7272  -3.6539  -3.6299  -3.5603
    -3.5411  -3.4828  -3.4415  -3.3972  -3.2937  -3.2266  -3.1436  -3.0716
    -3.0268  -2.9619  -2.8754  -2.7975  -2.7357  -2.6037  -2.5502  -2.3685
    -2.3541  -2.2817  -2.2338  -2.1698  -2.1153  -2.0255  -2.0028  -1.9368
    -1.9122  -1.8587  -1.8220  -1.7991  -1.7536  -1.7332  -1.7027  -1.6622
    -1.5763  -1.4002  -1.3711  -1.3176  -1.2185  -1.1572  -1.0791  -0.6196
    -0.2724   0.6082   0.9755   1.6932   2.1298   2.4453   3.1526   3.4577
     3.8179   4.7447   4.8752   5.6920   6.0875

          k = 0.1253-0.5060 0.0000 ( 24070 PWs)   bands (ev):

   -46.4165  -4.0990  -4.0539  -3.8598  -3.7275  -3.6539  -3.6302  -3.5601
    -3.5412  -3.4829  -3.4418  -3.3964  -3.2929  -3.2266  -3.1437  -3.0711
    -3.0275  -2.9627  -2.8744  -2.7986  -2.7362  -2.6037  -2.5494  -2.3684
    -2.3545  -2.2824  -2.2334  -2.1696  -2.1150  -2.0248  -2.0033  -1.9365
    -1.9126  -1.8587  -1.8220  -1.7985  -1.7539  -1.7333  -1.7026  -1.6627
    -1.5763  -1.4000  -1.3710  -1.3176  -1.2188  -1.1569  -1.0792  -0.6196
    -0.2725   0.6081   0.9746   1.6930   2.1289   2.4441   3.1564   3.4557
     3.8185   4.7429   4.8774   5.6858   6.0985

          k = 0.1253-0.3615 0.0000 ( 24099 PWs)   bands (ev):

   -46.4166  -4.2972  -4.0209  -3.9101  -3.8270  -3.7482  -3.7011  -3.6779
    -3.6188  -3.5181  -3.4605  -3.3791  -3.3482  -3.2634  -3.1740  -3.1016
    -3.0893  -2.9968  -2.7952  -2.7639  -2.6672  -2.5474  -2.4677  -2.4012
    -2.3399  -2.2693  -2.1736  -2.1411  -2.1067  -2.0066  -1.9899  -1.9476
    -1.9350  -1.8791  -1.8304  -1.7956  -1.7610  -1.7413  -1.7063  -1.6379
    -1.5921  -1.5764  -1.4757  -1.4285  -1.4117  -1.3081  -1.2302  -1.1120
    -0.0071   1.2894   1.5909   2.2482   2.3825   2.9126   3.4507   3.8274
     4.2094   4.9319   5.2667   5.5254   6.1280

          k = 0.1253-0.2171 0.0000 ( 24155 PWs)   bands (ev):

   -46.4166  -4.7766  -4.0588  -3.9257  -3.9197  -3.7726  -3.7285  -3.6438
    -3.6123  -3.4962  -3.4693  -3.3909  -3.3416  -3.3156  -3.2510  -3.1142
    -3.0579  -3.0170  -2.8426  -2.7920  -2.6953  -2.6487  -2.5818  -2.5335
    -2.4121  -2.3246  -2.2955  -2.1043  -2.0193  -2.0111  -1.9815  -1.9244
    -1.8743  -1.8432  -1.8236  -1.7725  -1.7408  -1.7098  -1.6643  -1.6601
    -1.6147  -1.5793  -1.5522  -1.5034  -1.4751  -1.3584  -1.1865  -1.1419
    -0.4909   1.0895   2.4156   3.1798   3.2719   3.8382   4.0772   4.3334
     4.9113   5.3650   5.5426   5.7102   5.9071

          k = 0.2506-0.1452 0.0000 ( 24164 PWs)   bands (ev):

   -46.4166  -4.6398  -4.0588  -3.8967  -3.8594  -3.8298  -3.7461  -3.6546
    -3.5854  -3.5002  -3.4522  -3.3915  -3.3423  -3.3363  -3.1621  -3.1075
    -3.0709  -2.9284  -2.8791  -2.8545  -2.7499  -2.5887  -2.5745  -2.4736
    -2.3977  -2.3431  -2.1787  -2.0989  -2.0933  -1.9983  -1.9322  -1.9220
    -1.8523  -1.8513  -1.8352  -1.7734  -1.7428  -1.7351  -1.6554  -1.6483
    -1.6377  -1.5729  -1.5573  -1.5176  -1.4271  -1.3587  -1.3305  -1.0642
    -0.3899   1.2088   2.1899   2.5536   3.1412   3.7634   3.9300   4.4310
     5.0022   5.0834   5.5824   5.8356   5.9376

          k = 0.2506-0.0007 0.0000 ( 24155 PWs)   bands (ev):

   -46.4166  -4.7766  -4.0588  -3.9257  -3.9197  -3.7726  -3.7285  -3.6438
    -3.6123  -3.4962  -3.4693  -3.3909  -3.3416  -3.3156  -3.2510  -3.1142
    -3.0579  -3.0170  -2.8426  -2.7920  -2.6953  -2.6487  -2.5818  -2.5335
    -2.4121  -2.3246  -2.2955  -2.1043  -2.0193  -2.0111  -1.9815  -1.9244
    -1.8743  -1.8432  -1.8236  -1.7725  -1.7407  -1.7098  -1.6643  -1.6601
    -1.6147  -1.5793  -1.5522  -1.5034  -1.4751  -1.3584  -1.1865  -1.1419
    -0.4909   1.0895   2.4156   3.1798   3.2719   3.8382   4.0772   4.3334
     4.9113   5.3650   5.5426   5.7102   5.9071

          k = 0.2506 0.1437 0.0000 ( 24139 PWs)   bands (ev):

   -46.4166  -4.6400  -4.0593  -3.8967  -3.8594  -3.8296  -3.7465  -3.6545
    -3.5856  -3.5003  -3.4522  -3.3904  -3.3426  -3.3340  -3.1627  -3.1074
    -3.0710  -2.9291  -2.8791  -2.8556  -2.7532  -2.5880  -2.5747  -2.4738
    -2.3976  -2.3436  -2.1773  -2.0980  -2.0930  -1.9969  -1.9317  -1.9220
    -1.8524  -1.8511  -1.8341  -1.7739  -1.7424  -1.7358  -1.6551  -1.6497
    -1.6375  -1.5729  -1.5574  -1.5177  -1.4269  -1.3587  -1.3304  -1.0642
    -0.3889   1.2102   2.1901   2.5560   3.1444   3.7613   3.9316   4.4347
     4.9967   5.0760   5.6248   5.8266   5.8679

          k = 0.2506 0.2882 0.0000 ( 24102 PWs)   bands (ev):

   -46.4166  -4.2974  -4.0210  -3.9101  -3.8271  -3.7486  -3.7009  -3.6779
    -3.6184  -3.5181  -3.4604  -3.3805  -3.3485  -3.2620  -3.1740  -3.1030
    -3.0882  -2.9972  -2.7942  -2.7642  -2.6663  -2.5479  -2.4680  -2.4016
    -2.3398  -2.2695  -2.1736  -2.1410  -2.1063  -2.0059  -1.9902  -1.9483
    -1.9348  -1.8801  -1.8305  -1.7964  -1.7604  -1.7410  -1.7052  -1.6383
    -1.5926  -1.5765  -1.4754  -1.4288  -1.4118  -1.3077  -1.2303  -1.1119
    -0.0061   1.2896   1.5924   2.2533   2.3779   2.9144   3.4548   3.8196
     4.2129   4.9313   5.2645   5.5199   6.1720

          k = 0.2506-0.7231 0.0000 ( 24086 PWs)   bands (ev):

   -46.4165  -3.9994  -3.9384  -3.9037  -3.8794  -3.8187  -3.6529  -3.6064
    -3.5572  -3.4410  -3.3982  -3.3700  -3.3500  -3.2110  -3.1982  -3.1235
    -3.0682  -2.9754  -2.8016  -2.6799  -2.6221  -2.5284  -2.4539  -2.3647
    -2.3027  -2.2757  -2.1989  -2.1315  -2.1143  -2.0210  -1.9996  -1.9379
    -1.9259  -1.8849  -1.8759  -1.8340  -1.7888  -1.7706  -1.6719  -1.6410
    -1.5664  -1.5371  -1.3711  -1.2923  -1.2535  -1.1939  -1.1350  -0.7925
     0.5158   0.6008   0.7435   1.6781   1.8792   2.3380   3.2426   3.4344
     3.6504   4.3289   4.7464   5.3110   5.9268

          k = 0.2506-0.5786 0.0000 ( 24049 PWs)   bands (ev):

   -46.4165  -3.9923  -3.9582  -3.8729  -3.8511  -3.7194  -3.6598  -3.5719
    -3.5165  -3.4467  -3.4224  -3.3836  -3.2822  -3.2263  -3.1279  -3.1191
    -3.0119  -2.9582  -2.8839  -2.7583  -2.5889  -2.5083  -2.4550  -2.4116
    -2.2872  -2.2359  -2.1726  -2.1320  -2.0854  -2.0348  -2.0257  -1.9857
    -1.9535  -1.9169  -1.8789  -1.8254  -1.8041  -1.7216  -1.6480  -1.6179
    -1.4481  -1.3654  -1.3247  -1.1851  -1.1220  -1.0957  -0.9121  -0.7879
     0.0901   0.3275   0.4044   1.4174   2.0021   2.0482   2.9907   3.3018
     3.6447   4.2248   4.5335   4.8535   6.0344

          k = 0.2506-0.4341 0.0000 ( 24068 PWs)   bands (ev):

   -46.4165  -3.9988  -3.9390  -3.9037  -3.8793  -3.8185  -3.6527  -3.6064
    -3.5576  -3.4411  -3.3974  -3.3701  -3.3494  -3.2108  -3.1982  -3.1235
    -3.0682  -2.9747  -2.8027  -2.6800  -2.6224  -2.5287  -2.4538  -2.3629
    -2.3030  -2.2758  -2.1987  -2.1316  -2.1146  -2.0207  -2.0003  -1.9383
    -1.9257  -1.8844  -1.8754  -1.8335  -1.7893  -1.7707  -1.6716  -1.6427
    -1.5664  -1.5360  -1.3711  -1.2922  -1.2535  -1.1939  -1.1348  -0.7929
     0.5133   0.6002   0.7444   1.6749   1.8779   2.3373   3.2407   3.4407
     3.6502   4.3227   4.7488   5.3313   5.9240

          k = 0.2506-0.2897 0.0000 ( 24092 PWs)   bands (ev):

   -46.4165  -4.2971  -4.0208  -3.9102  -3.8271  -3.7482  -3.7010  -3.6779
    -3.6185  -3.5181  -3.4611  -3.3803  -3.3483  -3.2632  -3.1734  -3.1019
    -3.0882  -2.9970  -2.7942  -2.7636  -2.6665  -2.5471  -2.4672  -2.4004
    -2.3402  -2.2694  -2.1743  -2.1406  -2.1072  -2.0068  -1.9896  -1.9493
    -1.9346  -1.8809  -1.8301  -1.7961  -1.7605  -1.7413  -1.7054  -1.6382
    -1.5921  -1.5764  -1.4756  -1.4287  -1.4118  -1.3081  -1.2302  -1.1119
    -0.0078   1.2879   1.5902   2.2486   2.3800   2.9122   3.4543   3.8246
     4.2067   4.9365   5.2795   5.5193   6.1742

          k = 0.3760-0.2178 0.0000 ( 24082 PWs)   bands (ev):

   -46.4165  -4.1610  -4.0437  -4.0143  -3.7526  -3.6550  -3.6526  -3.5755
    -3.5669  -3.4695  -3.4356  -3.4168  -3.3177  -3.2604  -3.1630  -3.1148
    -3.0168  -2.9554  -2.8899  -2.7940  -2.7539  -2.5792  -2.5590  -2.4701
    -2.3957  -2.3490  -2.1619  -2.1439  -2.1142  -1.9961  -1.9959  -1.9683
    -1.8833  -1.8214  -1.7885  -1.7598  -1.7509  -1.7213  -1.6514  -1.6177
    -1.5921  -1.5272  -1.4825  -1.4088  -1.3067  -1.2845  -1.1384  -1.0251
     0.2356   0.4384   1.3588   1.8753   2.7448   2.8185   3.1984   3.9845
     4.3389   4.8793   5.5886   5.7048   6.1028

          k = 0.3760-0.0734 0.0000 ( 24092 PWs)   bands (ev):

   -46.4165  -4.2971  -4.0208  -3.9102  -3.8271  -3.7482  -3.7010  -3.6779
    -3.6185  -3.5181  -3.4611  -3.3803  -3.3483  -3.2632  -3.1734  -3.1019
    -3.0882  -2.9970  -2.7942  -2.7636  -2.6665  -2.5471  -2.4672  -2.4004
    -2.3402  -2.2694  -2.1743  -2.1406  -2.1072  -2.0068  -1.9896  -1.9493
    -1.9346  -1.8809  -1.8301  -1.7961  -1.7605  -1.7413  -1.7054  -1.6382
    -1.5921  -1.5764  -1.4756  -1.4287  -1.4118  -1.3081  -1.2302  -1.1119
    -0.0078   1.2879   1.5902   2.2486   2.3800   2.9122   3.4543   3.8246
     4.2067   4.9365   5.2795   5.5193   6.1741

          k = 0.3760 0.0711 0.0000 ( 24099 PWs)   bands (ev):

   -46.4166  -4.2972  -4.0209  -3.9101  -3.8270  -3.7482  -3.7011  -3.6779
    -3.6188  -3.5181  -3.4605  -3.3791  -3.3482  -3.2634  -3.1740  -3.1016
    -3.0893  -2.9968  -2.7952  -2.7639  -2.6672  -2.5474  -2.4677  -2.4012
    -2.3399  -2.2693  -2.1736  -2.1411  -2.1067  -2.0066  -1.9899  -1.9476
    -1.9350  -1.8791  -1.8304  -1.7956  -1.7610  -1.7413  -1.7063  -1.6379
    -1.5921  -1.5764  -1.4757  -1.4285  -1.4117  -1.3081  -1.2302  -1.1120
    -0.0071   1.2894   1.5909   2.2482   2.3825   2.9126   3.4507   3.8274
     4.2094   4.9319   5.2667   5.5254   6.1280

          k = 0.3760 0.2156 0.0000 ( 24088 PWs)   bands (ev):

   -46.4165  -4.1612  -4.0437  -4.0143  -3.7526  -3.6548  -3.6526  -3.5756
    -3.5673  -3.4694  -3.4359  -3.4164  -3.3161  -3.2603  -3.1639  -3.1149
    -3.0171  -2.9564  -2.8907  -2.7943  -2.7574  -2.5798  -2.5599  -2.4700
    -2.3956  -2.3479  -2.1614  -2.1444  -2.1128  -1.9961  -1.9944  -1.9679
    -1.8831  -1.8203  -1.7886  -1.7603  -1.7507  -1.7218  -1.6513  -1.6183
    -1.5913  -1.5275  -1.4825  -1.4088  -1.3068  -1.2843  -1.1375  -1.0251
     0.2380   0.4390   1.3615   1.8797   2.7490   2.8174   3.1950   3.9907
     4.3359   4.8587   5.5834   5.7040   6.0739

          k = 0.3760-0.7957 0.0000 ( 24065 PWs)   bands (ev):

   -46.4165  -4.0990  -4.0539  -3.8601  -3.7272  -3.6539  -3.6299  -3.5603
    -3.5411  -3.4828  -3.4415  -3.3972  -3.2937  -3.2266  -3.1436  -3.0716
    -3.0268  -2.9619  -2.8754  -2.7975  -2.7357  -2.6037  -2.5502  -2.3685
    -2.3541  -2.2817  -2.2338  -2.1698  -2.1153  -2.0255  -2.0028  -1.9368
    -1.9122  -1.8587  -1.8220  -1.7991  -1.7536  -1.7332  -1.7027  -1.6622
    -1.5763  -1.4002  -1.3711  -1.3176  -1.2185  -1.1572  -1.0791  -0.6196
    -0.2724   0.6082   0.9755   1.6932   2.1298   2.4453   3.1526   3.4577
     3.8179   4.7447   4.8752   5.6920   6.0875

          k = 0.3760-0.6512 0.0000 ( 24049 PWs)   bands (ev):

   -46.4165  -3.9923  -3.9582  -3.8729  -3.8511  -3.7194  -3.6598  -3.5719
    -3.5165  -3.4467  -3.4224  -3.3836  -3.2822  -3.2263  -3.1279  -3.1191
    -3.0119  -2.9582  -2.8839  -2.7583  -2.5889  -2.5083  -2.4550  -2.4116
    -2.2872  -2.2359  -2.1726  -2.1320  -2.0854  -2.0348  -2.0257  -1.9857
    -1.9535  -1.9169  -1.8789  -1.8254  -1.8041  -1.7216  -1.6480  -1.6179
    -1.4481  -1.3654  -1.3247  -1.1851  -1.1220  -1.0957  -0.9121  -0.7879
     0.0901   0.3275   0.4044   1.4174   2.0021   2.0482   2.9907   3.3018
     3.6447   4.2248   4.5335   4.8535   6.0344

          k = 0.3760-0.5067 0.0000 ( 24032 PWs)   bands (ev):

   -46.4165  -3.9923  -3.9586  -3.8728  -3.8508  -3.7193  -3.6598  -3.5718
    -3.5166  -3.4462  -3.4217  -3.3842  -3.2824  -3.2268  -3.1274  -3.1182
    -3.0121  -2.9583  -2.8840  -2.7583  -2.5878  -2.5080  -2.4556  -2.4107
    -2.2873  -2.2360  -2.1727  -2.1331  -2.0843  -2.0356  -2.0248  -1.9854
    -1.9538  -1.9167  -1.8793  -1.8255  -1.8041  -1.7218  -1.6477  -1.6176
    -1.4482  -1.3655  -1.3248  -1.1850  -1.1218  -1.0957  -0.9129  -0.7885
     0.0882   0.3279   0.4044   1.4171   2.0010   2.0455   2.9936   3.2984
     3.6472   4.2185   4.5339   4.8765   6.0171

          k = 0.3760-0.3623 0.0000 ( 24075 PWs)   bands (ev):

   -46.4165  -4.0991  -4.0541  -3.8598  -3.7276  -3.6539  -3.6298  -3.5599
    -3.5413  -3.4831  -3.4417  -3.3969  -3.2934  -3.2262  -3.1434  -3.0710
    -3.0266  -2.9625  -2.8750  -2.7980  -2.7332  -2.6033  -2.5482  -2.3683
    -2.3550  -2.2820  -2.2341  -2.1692  -2.1155  -2.0256  -2.0048  -1.9367
    -1.9124  -1.8591  -1.8222  -1.7991  -1.7536  -1.7323  -1.7025  -1.6625
    -1.5762  -1.4003  -1.3718  -1.3177  -1.2186  -1.1571  -1.0791  -0.6200
    -0.2748   0.6078   0.9713   1.6943   2.1221   2.4448   3.1560   3.4602
     3.8128   4.7523   4.8926   5.6924   6.0890

          k =-0.5013 0.2904 0.0000 ( 24044 PWs)   bands (ev):

   -46.4165  -4.1670  -4.1080  -3.7435  -3.6554  -3.6376  -3.5919  -3.5645
    -3.4694  -3.4389  -3.3666  -3.3179  -3.2736  -3.2466  -3.2239  -3.1844
    -3.0886  -2.9272  -2.9158  -2.8002  -2.7516  -2.6742  -2.5885  -2.5177
    -2.4124  -2.3755  -2.2273  -2.1410  -2.0443  -2.0250  -2.0145  -1.9804
    -1.8652  -1.8494  -1.8293  -1.7581  -1.7409  -1.7238  -1.7070  -1.6285
    -1.5190  -1.4429  -1.4317  -1.2147  -1.1552  -0.9913  -0.9878  -0.8294
    -0.1619  -0.0252   1.2200   1.5111   2.4431   2.5176   3.1570   3.7895
     4.1003   4.6467   5.6355   5.7272   5.9679

          k =-0.5013 0.4349 0.0000 ( 24075 PWs)   bands (ev):

   -46.4165  -4.0991  -4.0541  -3.8598  -3.7276  -3.6539  -3.6298  -3.5599
    -3.5413  -3.4831  -3.4417  -3.3969  -3.2934  -3.2262  -3.1434  -3.0710
    -3.0266  -2.9625  -2.8750  -2.7980  -2.7332  -2.6033  -2.5482  -2.3683
    -2.3550  -2.2820  -2.2341  -2.1692  -2.1155  -2.0256  -2.0048  -1.9367
    -1.9124  -1.8591  -1.8222  -1.7991  -1.7536  -1.7323  -1.7025  -1.6625
    -1.5762  -1.4003  -1.3718  -1.3177  -1.2186  -1.1571  -1.0791  -0.6200
    -0.2748   0.6078   0.9713   1.6943   2.1221   2.4448   3.1560   3.4602
     3.8128   4.7523   4.8926   5.6924   6.0890

          k =-0.5013 0.5793 0.0000 ( 24068 PWs)   bands (ev):

   -46.4165  -3.9988  -3.9390  -3.9037  -3.8793  -3.8185  -3.6527  -3.6064
    -3.5576  -3.4411  -3.3974  -3.3701  -3.3494  -3.2108  -3.1982  -3.1235
    -3.0682  -2.9747  -2.8027  -2.6800  -2.6224  -2.5287  -2.4538  -2.3629
    -2.3030  -2.2758  -2.1987  -2.1316  -2.1146  -2.0207  -2.0003  -1.9383
    -1.9257  -1.8844  -1.8753  -1.8335  -1.7893  -1.7707  -1.6716  -1.6427
    -1.5664  -1.5360  -1.3711  -1.2922  -1.2535  -1.1939  -1.1348  -0.7929
     0.5133   0.6002   0.7444   1.6749   1.8779   2.3373   3.2407   3.4407
     3.6502   4.3227   4.7488   5.3313   5.9240

          k =-0.5013 0.7238 0.0000 ( 24070 PWs)   bands (ev):

   -46.4165  -4.0990  -4.0539  -3.8598  -3.7275  -3.6539  -3.6302  -3.5601
    -3.5412  -3.4830  -3.4418  -3.3964  -3.2929  -3.2266  -3.1437  -3.0711
    -3.0275  -2.9627  -2.8744  -2.7986  -2.7362  -2.6037  -2.5494  -2.3684
    -2.3545  -2.2824  -2.2334  -2.1696  -2.1150  -2.0248  -2.0033  -1.9365
    -1.9126  -1.8587  -1.8220  -1.7985  -1.7539  -1.7333  -1.7026  -1.6627
    -1.5763  -1.4000  -1.3710  -1.3176  -1.2188  -1.1569  -1.0792  -0.6196
    -0.2725   0.6081   0.9746   1.6930   2.1289   2.4441   3.1564   3.4557
     3.8185   4.7429   4.8773   5.6858   6.0985

          k =-0.5013-0.2874 0.0000 ( 24060 PWs)   bands (ev):

   -46.4165  -4.1670  -4.1079  -3.7436  -3.6545  -3.6378  -3.5919  -3.5643
    -3.4693  -3.4390  -3.3673  -3.3181  -3.2733  -3.2467  -3.2239  -3.1845
    -3.0881  -2.9302  -2.9166  -2.8012  -2.7550  -2.6740  -2.5890  -2.5178
    -2.4122  -2.3756  -2.2244  -2.1423  -2.0441  -2.0237  -2.0141  -1.9799
    -1.8646  -1.8494  -1.8288  -1.7584  -1.7405  -1.7239  -1.7080  -1.6285
    -1.5194  -1.4428  -1.4317  -1.2148  -1.1552  -0.9914  -0.9862  -0.8288
    -0.1587  -0.0248   1.2231   1.5151   2.4418   2.5263   3.1493   3.7962
     4.0979   4.6221   5.6371   5.7276   5.9655

     the Fermi energy is     1.7354 ev

!    total energy              =    -773.36195271 Ry
     estimated scf accuracy    <       0.00000014 Ry
     smearing contrib. (-TS)   =       0.00132375 Ry
     internal energy E=F+TS    =    -773.36327646 Ry

     The total energy is F=E-TS. E is the sum of the following terms:
     one-electron contribution =   -7538.55555154 Ry
     hartree contribution      =    3838.85009726 Ry
     xc contribution           =    -204.25975133 Ry
     ewald contribution        =    3130.82960538 Ry
     DFT-D3 Dispersion         =      -0.22767622 Ry

     convergence has been achieved in   6 iterations

     negative rho (up, down):  2.416E-05 0.000E+00

     Forces acting on atoms (cartesian axes, Ry/au):

     atom    1 type  2   force =    -0.00001230    0.00000631   -0.00138308
     atom    2 type  2   force =     0.00126289   -0.00073076    0.01855806
     atom    3 type  2   force =    -0.00104023    0.00060327   -0.01421744
     atom    4 type  2   force =     0.00016286   -0.00009454    0.00170143
     atom    5 type  2   force =     0.00018277   -0.00010683    0.00272142
     atom    6 type  2   force =     0.00004518   -0.00002649    0.00021630
     atom    7 type  2   force =     0.00016446   -0.00009522    0.00248991
     atom    8 type  2   force =    -0.00058635    0.00034003   -0.00849646
     atom    9 type  2   force =     0.00118854   -0.00068765    0.01660890
     atom   10 type  1   force =    -0.00136782    0.00079187   -0.01819905
     The non-local contrib.  to forces
     atom    1 type  2   force =     0.00199693   -0.00115765    0.01867901
     atom    2 type  2   force =     0.00318253   -0.00184303    0.05712153
     atom    3 type  2   force =     0.00039247   -0.00022809    0.00178152
     atom    4 type  2   force =     0.00133959   -0.00077694    0.02139953
     atom    5 type  2   force =    -0.00083308    0.00048138   -0.01147322
     atom    6 type  2   force =     0.00137702   -0.00079780    0.02065989
     atom    7 type  2   force =    -0.00272367    0.00157799   -0.03786417
     atom    8 type  2   force =    -0.00280052    0.00162291   -0.03786390
     atom    9 type  2   force =    -0.01206857    0.00699303   -0.16911960
     atom   10 type  1   force =     0.00446168   -0.00258478    0.05629460
     The ionic contribution  to forces
     atom    1 type  2   force =     6.17320917   -3.57638001   85.42532608
     atom    2 type  2   force =     7.67085961   -4.44407443  106.97050598
     atom    3 type  2   force =     1.79170859   -1.03805597   24.89335005
     atom    4 type  2   force =     4.31730540   -2.50120569   60.01709368
     atom    5 type  2   force =    -2.40216371    1.39168523  -33.37479553
     atom    6 type  2   force =    -0.28418521    0.16463851   -3.94736565
     atom    7 type  2   force =    -6.68717667    3.87416595  -92.90292353
     atom    8 type  2   force =    -4.73147396    2.74116618  -65.72815665
     atom    9 type  2   force =    -8.17566593    4.73653243 -113.58024944
     atom   10 type  1   force =     2.32758270   -1.34847220   32.22721502
     The local contribution  to forces
     atom    1 type  2   force =    -6.17516277    3.57751040  -85.44528257
     atom    2 type  2   force =    -7.67233344    4.44492814 -107.00073729
     atom    3 type  2   force =    -1.79307184    1.03884583  -24.90841519
     atom    4 type  2   force =    -4.31826033    2.50176046  -60.03366062
     atom    5 type  2   force =     2.40299747   -1.39216834   33.38644725
     atom    6 type  2   force =     0.28280004   -0.16383543    3.92618049
     atom    7 type  2   force =     6.68977223   -3.87566954   92.93921201
     atom    8 type  2   force =     4.73320712   -2.74217095   65.75086416
     atom    9 type  2   force =     8.18858531   -4.74401878  113.76131461
     atom   10 type  1   force =    -2.33319919    1.35172549  -32.29988030
     The core correction contribution to forces
     atom    1 type  2   force =    -0.00002439    0.00001407    0.00049827
     atom    2 type  2   force =    -0.00033389    0.00019342   -0.00583721
     atom    3 type  2   force =     0.00011650   -0.00006749    0.00163828
     atom    4 type  2   force =    -0.00010052    0.00005828   -0.00140979
     atom    5 type  2   force =    -0.00004905    0.00002842   -0.00066838
     atom    6 type  2   force =     0.00002408   -0.00001390    0.00032477
     atom    7 type  2   force =     0.00023288   -0.00013488    0.00324828
     atom    8 type  2   force =     0.00021150   -0.00012257    0.00292616
     atom    9 type  2   force =     0.00032562   -0.00018876    0.00451222
     atom   10 type  1   force =     0.00000000    0.00000000    0.00000000
     The Hubbard contrib.    to forces
     atom    1 type  2   force =     0.00000000    0.00000000    0.00000000
     atom    2 type  2   force =     0.00000000    0.00000000    0.00000000
     atom    3 type  2   force =     0.00000000    0.00000000    0.00000000
     atom    4 type  2   force =     0.00000000    0.00000000    0.00000000
     atom    5 type  2   force =     0.00000000    0.00000000    0.00000000
     atom    6 type  2   force =     0.00000000    0.00000000    0.00000000
     atom    7 type  2   force =     0.00000000    0.00000000    0.00000000
     atom    8 type  2   force =     0.00000000    0.00000000    0.00000000
     atom    9 type  2   force =     0.00000000    0.00000000    0.00000000
     atom   10 type  1   force =     0.00000000    0.00000000    0.00000000
     The SCF correction term to forces
     atom    1 type  2   force =     0.00001374   -0.00000647    0.00023637
     atom    2 type  2   force =     0.00003030   -0.00001718    0.00039302
     atom    3 type  2   force =    -0.00000246    0.00000265   -0.00003470
     atom    4 type  2   force =    -0.00000021   -0.00000074   -0.00000422
     atom    5 type  2   force =    -0.00000628    0.00000407   -0.00009087
     atom    6 type  2   force =    -0.00000155   -0.00000001   -0.00001402
     atom    7 type  2   force =    -0.00002722    0.00001563   -0.00039310
     atom    8 type  2   force =    -0.00001810    0.00001114   -0.00025895
     atom    9 type  2   force =    -0.00003145    0.00001972   -0.00045515
     atom   10 type  1   force =    -0.00000569    0.00000329   -0.00010005

     DFT-D3 dispersion contribution to forces:
     atom    1 type  2   force =    -0.00004371    0.00002527   -0.00082337
     atom    2 type  2   force =    -0.00014094    0.00008162   -0.00287111
     atom    3 type  2   force =    -0.00018221    0.00010564   -0.00252052
     atom    4 type  2   force =    -0.00011979    0.00006939   -0.00170028
     atom    5 type  2   force =     0.00023870   -0.00013828    0.00331904
     atom    6 type  2   force =     0.00003208   -0.00001856    0.00044768
     atom    7 type  2   force =     0.00008818   -0.00005108    0.00122728
     atom    8 type  2   force =     0.00028889   -0.00016738    0.00400959
     atom    9 type  2   force =     0.00004485   -0.00002599    0.00062313
     atom   10 type  1   force =    -0.00020604    0.00011937   -0.00171144

     Total force =     0.035395     Total SCF correction =     0.000814


     Computing stress (Cartesian axis) and pressure


     negative rho (up, down):  2.416E-05 0.000E+00
          total   stress  (Ry/bohr**3)                   (kbar)     P=      -20.23
  -0.00015612  -0.00000017   0.00000394          -22.97       -0.03        0.58
  -0.00000017  -0.00015632  -0.00000228           -0.03      -23.00       -0.34
   0.00000394  -0.00000228  -0.00010011            0.58       -0.34      -14.73

     Energy error            =      1.4E-03 Ry
     Gradient error          =      1.9E-02 Ry/Bohr

     number of scf cycles    =   2
     number of bfgs steps    =   1

     energy             old  =    -773.3605176855 Ry
     energy             new  =    -773.3619527113 Ry

     CASE: energy            _new < energy            _old


     WARNING: bfgs curvature condition failed, Theta= 0.880
     new trust radius        =       0.0232881333 bohr
     new conv_thr            =       0.0000001435 Ry


ATOMIC_POSITIONS (angstrom)
Ag            4.4966030512        3.2579250367       16.3760025450
Ag            4.5479835971        0.5221490839       17.0925701450
Ag            4.3507743540        0.6364141846       14.3517612303
Ag            2.0955107218        1.9429805668       15.6323305747
Ag            1.8838427053        2.0656167471       12.6925979500
Ag            4.2917155691        3.3766386833       13.5304516324
Ag            4.0861584629        3.4957274925       10.6755511984
Ag            4.1457893687        0.7551696008       11.5032616190
Ag            1.6793744179        2.1840742918        9.8518901075
Li            4.6384493838        3.1757462743       19.0474975644



     Writing config-only to output data dir ./Ag_mp-2646971_111_ontop_0/Ag_mp-2646971_111_ontop_0.save/
     NEW-OLD atomic charge density approx. for the potential

     negative rho (up, down):  2.510E-05 0.000E+00

     total cpu time spent up to now is       38.4 secs

     per-process dynamical memory:   198.9 Mb

     Self-consistent Calculation

     iteration #  1     ecut=    55.00 Ry     beta= 0.30
     Davidson diagonalization with overlap
     ethr =  1.00E-06,  avg # of iterations =  6.0

     Threshold (ethr) on eigenvalues was too large:
     Diagonalizing with lowered threshold

     Davidson diagonalization with overlap
     ethr =  6.39E-08,  avg # of iterations =  2.6

     negative rho (up, down):  2.480E-05 0.000E+00

     total cpu time spent up to now is       41.6 secs

     total energy              =    -773.36339095 Ry
     estimated scf accuracy    <       0.00006868 Ry

     iteration #  2     ecut=    55.00 Ry     beta= 0.30
     Davidson diagonalization with overlap
     ethr =  6.73E-08,  avg # of iterations =  2.3

     negative rho (up, down):  2.930E-05 0.000E+00

     total cpu time spent up to now is       42.8 secs

     total energy              =    -773.36335010 Ry
     estimated scf accuracy    <       0.00137122 Ry

     iteration #  3     ecut=    55.00 Ry     beta= 0.30
     Davidson diagonalization with overlap
     ethr =  6.73E-08,  avg # of iterations =  2.0

     negative rho (up, down):  3.056E-05 0.000E+00

     total cpu time spent up to now is       43.7 secs

     total energy              =    -773.36341046 Ry
     estimated scf accuracy    <       0.00002903 Ry

     iteration #  4     ecut=    55.00 Ry     beta= 0.30
     Davidson diagonalization with overlap
     ethr =  2.85E-08,  avg # of iterations =  1.6

     negative rho (up, down):  2.802E-05 0.000E+00

     total cpu time spent up to now is       44.7 secs

     total energy              =    -773.36341301 Ry
     estimated scf accuracy    <       0.00001111 Ry

     iteration #  5     ecut=    55.00 Ry     beta= 0.30
     Davidson diagonalization with overlap
[...]
    -1.8411  -1.7499  -1.6897  -1.6622  -1.6121  -1.5151  -1.4535  -1.3672
    -0.2195   0.9755   1.7484   1.8960   2.0115   3.0424   3.2795   3.8375
     4.6911   4.8225   5.7268   6.0418   6.3348

          k = 0.3760-0.2178 0.0000 ( 24082 PWs)   bands (ev):

   -45.5729  -4.4499  -4.3933  -4.3043  -4.1221  -4.0627  -4.0215  -3.9406
    -3.8891  -3.8645  -3.7452  -3.7092  -3.6585  -3.5546  -3.5113  -3.4262
    -3.4220  -3.2649  -3.1870  -3.1324  -3.0906  -2.9754  -2.9604  -2.7547
    -2.7371  -2.6576  -2.5355  -2.5143  -2.4628  -2.4431  -2.3004  -2.2615
    -2.1622  -2.1577  -2.0681  -2.0438  -2.0253  -1.9467  -1.8977  -1.8734
    -1.7977  -1.7767  -1.6518  -1.5943  -1.4917  -1.4851  -1.3932  -1.3008
     0.0097   0.1401   1.0206   2.0020   2.3927   2.4976   3.8079   3.8383
     4.4734   5.4021   5.6490   5.8075   6.0276

          k = 0.3760-0.0734 0.0000 ( 24092 PWs)   bands (ev):

   -45.5729  -4.6265  -4.3575  -4.2488  -4.2103  -4.0781  -4.0168  -3.9883
    -3.9608  -3.8861  -3.8230  -3.7481  -3.6523  -3.5401  -3.4810  -3.4366
    -3.4029  -3.2905  -3.1319  -3.1150  -3.0219  -2.9352  -2.8202  -2.7956
    -2.6932  -2.6325  -2.5652  -2.5029  -2.4537  -2.3923  -2.3516  -2.3114
    -2.2165  -2.1813  -2.1196  -2.0530  -2.0035  -1.9536  -1.9234  -1.9001
    -1.8411  -1.7499  -1.6897  -1.6622  -1.6121  -1.5151  -1.4535  -1.3672
    -0.2195   0.9755   1.7484   1.8960   2.0115   3.0424   3.2795   3.8375
     4.6911   4.8225   5.7268   6.0418   6.3348

          k = 0.3760 0.0711 0.0000 ( 24099 PWs)   bands (ev):

   -45.5729  -4.6270  -4.3580  -4.2482  -4.2105  -4.0772  -4.0156  -3.9868
    -3.9625  -3.8863  -3.8217  -3.7485  -3.6516  -3.5392  -3.4813  -3.4380
    -3.4026  -3.2900  -3.1303  -3.1161  -3.0214  -2.9359  -2.8202  -2.7949
    -2.6957  -2.6314  -2.5641  -2.5051  -2.4529  -2.3957  -2.3523  -2.3109
    -2.2168  -2.1817  -2.1200  -2.0545  -2.0044  -1.9530  -1.9226  -1.9001
    -1.8403  -1.7494  -1.6901  -1.6626  -1.6112  -1.5155  -1.4528  -1.3672
    -0.2191   0.9762   1.7500   1.8952   2.0110   3.0420   3.2798   3.8382
     4.6914   4.8233   5.7387   5.9950   6.4538

          k = 0.3760 0.2156 0.0000 ( 24088 PWs)   bands (ev):

   -45.5729  -4.4510  -4.3934  -4.3040  -4.1226  -4.0597  -4.0209  -3.9399
    -3.8875  -3.8637  -3.7447  -3.7099  -3.6566  -3.5555  -3.5122  -3.4255
    -3.4209  -3.2631  -3.1864  -3.1323  -3.0905  -2.9771  -2.9593  -2.7555
    -2.7404  -2.6587  -2.5369  -2.5130  -2.4642  -2.4462  -2.3014  -2.2627
    -2.1626  -2.1606  -2.0699  -2.0436  -2.0256  -1.9459  -1.8977  -1.8724
    -1.7960  -1.7768  -1.6528  -1.5933  -1.4907  -1.4858  -1.3932  -1.3001
     0.0109   0.1406   1.0212   2.0010   2.3924   2.4998   3.8074   3.8399
     4.4758   5.4040   5.6523   5.8068   6.0365

          k = 0.3760-0.7957 0.0000 ( 24065 PWs)   bands (ev):

   -45.5729  -4.4438  -4.3587  -4.1802  -4.0973  -4.0610  -3.9565  -3.9166
    -3.8629  -3.8053  -3.7677  -3.7222  -3.6338  -3.5782  -3.5454  -3.5165
    -3.3718  -3.2665  -3.1617  -3.0669  -3.0347  -2.9827  -2.8901  -2.8139
    -2.7252  -2.6805  -2.5763  -2.5380  -2.4302  -2.3924  -2.3322  -2.2777
    -2.1719  -2.1471  -2.0922  -2.0315  -1.9849  -1.9168  -1.8503  -1.7842
    -1.7056  -1.6489  -1.6320  -1.5747  -1.4487  -1.3838  -1.3053  -0.9487
    -0.5698   0.3043   0.5897   1.2889   1.8431   2.6114   2.6978   3.8775
     4.3139   4.6077   5.8366   6.2079   6.4379

          k = 0.3760-0.6512 0.0000 ( 24049 PWs)   bands (ev):

   -45.5728  -4.4769  -4.2964  -4.1704  -4.0886  -4.0616  -4.0258  -3.9312
    -3.7919  -3.7842  -3.7466  -3.7131  -3.6610  -3.5814  -3.5279  -3.4895
    -3.3767  -3.2664  -3.2488  -3.1121  -3.0454  -2.8658  -2.8381  -2.6902
    -2.6836  -2.6543  -2.6008  -2.4675  -2.4492  -2.3539  -2.2722  -2.2615
    -2.1681  -2.0910  -2.0708  -2.0185  -1.9354  -1.8763  -1.8224  -1.8043
    -1.6963  -1.5410  -1.4935  -1.4209  -1.3536  -1.3456  -1.2761  -1.0449
    -0.3120  -0.0699   0.0381   1.0403   1.4284   1.7646   2.8627   3.4284
     3.9586   4.6576   4.9635   6.2503   7.0037

          k = 0.3760-0.5067 0.0000 ( 24032 PWs)   bands (ev):

   -45.5728  -4.4773  -4.2962  -4.1707  -4.0885  -4.0604  -4.0262  -3.9319
    -3.7929  -3.7842  -3.7473  -3.7139  -3.6607  -3.5817  -3.5275  -3.4901
    -3.3770  -3.2675  -3.2478  -3.1096  -3.0462  -2.8647  -2.8385  -2.6917
    -2.6832  -2.6565  -2.5977  -2.4675  -2.4498  -2.3515  -2.2744  -2.2606
    -2.1684  -2.0894  -2.0714  -2.0168  -1.9331  -1.8780  -1.8217  -1.8048
    -1.6956  -1.5411  -1.4924  -1.4224  -1.3538  -1.3446  -1.2772  -1.0455
    -0.3123  -0.0706   0.0387   1.0401   1.4286   1.7643   2.8627   3.4279
     3.9575   4.6561   4.9631   6.2527   7.0021

          k = 0.3760-0.3623 0.0000 ( 24075 PWs)   bands (ev):

   -45.5729  -4.4449  -4.3574  -4.1791  -4.0997  -4.0602  -3.9569  -3.9165
    -3.8652  -3.8071  -3.7673  -3.7235  -3.6353  -3.5797  -3.5440  -3.5161
    -3.3717  -3.2675  -3.1639  -3.0640  -3.0353  -2.9831  -2.8884  -2.8122
    -2.7262  -2.6781  -2.5770  -2.5396  -2.4262  -2.3910  -2.3327  -2.2762
    -2.1687  -2.1473  -2.0895  -2.0319  -1.9855  -1.9170  -1.8488  -1.7852
    -1.7050  -1.6499  -1.6324  -1.5759  -1.4501  -1.3820  -1.3052  -0.9495
    -0.5711   0.3044   0.5890   1.2888   1.8440   2.6115   2.6954   3.8755
     4.3131   4.6066   5.8311   6.2081   6.4367

          k =-0.5013 0.2904 0.0000 ( 24044 PWs)   bands (ev):

   -45.5728  -4.4721  -4.4076  -4.0802  -4.0445  -3.9814  -3.9104  -3.8519
    -3.8128  -3.7962  -3.7537  -3.7454  -3.7006  -3.6877  -3.6492  -3.4029
    -3.3179  -3.2665  -3.1983  -3.1834  -3.0762  -2.9920  -2.9620  -2.8596
    -2.8284  -2.6024  -2.5733  -2.4785  -2.4722  -2.3933  -2.3197  -2.2200
    -2.1711  -2.1501  -2.1276  -2.0598  -2.0251  -1.9211  -1.9198  -1.7742
    -1.7262  -1.6214  -1.5983  -1.3960  -1.3827  -1.3586  -1.2375  -1.0075
    -0.6066  -0.2570   0.8080   1.2798   1.9926   2.7262   3.5392   3.5620
     4.4008   5.3909   5.6306   5.7590   5.9352

          k =-0.5013 0.4349 0.0000 ( 24075 PWs)   bands (ev):

   -45.5729  -4.4449  -4.3574  -4.1791  -4.0997  -4.0602  -3.9569  -3.9165
    -3.8652  -3.8071  -3.7673  -3.7235  -3.6353  -3.5797  -3.5440  -3.5161
    -3.3717  -3.2675  -3.1639  -3.0640  -3.0353  -2.9831  -2.8884  -2.8122
    -2.7262  -2.6781  -2.5770  -2.5396  -2.4262  -2.3910  -2.3327  -2.2762
    -2.1687  -2.1473  -2.0895  -2.0319  -1.9855  -1.9170  -1.8488  -1.7852
    -1.7050  -1.6499  -1.6324  -1.5759  -1.4501  -1.3820  -1.3052  -0.9495
    -0.5711   0.3044   0.5890   1.2888   1.8440   2.6115   2.6954   3.8755
     4.3131   4.6066   5.8311   6.2081   6.4368

          k =-0.5013 0.5793 0.0000 ( 24068 PWs)   bands (ev):

   -45.5729  -4.4388  -4.2580  -4.2458  -4.1681  -4.1058  -4.0615  -3.9065
    -3.8585  -3.8118  -3.7660  -3.7242  -3.6612  -3.5707  -3.5161  -3.4803
    -3.3668  -3.2792  -3.1783  -3.0827  -3.0200  -2.8808  -2.8451  -2.7628
    -2.7173  -2.6904  -2.5700  -2.4537  -2.4103  -2.3604  -2.3308  -2.2540
    -2.1663  -2.1045  -2.0787  -2.0053  -1.9872  -1.9419  -1.8967  -1.8176
    -1.7793  -1.7136  -1.6185  -1.5727  -1.4881  -1.3792  -1.3589  -1.1290
     0.2002   0.2227   0.4254   1.3513   1.4002   2.4935   2.9416   3.1349
     4.1995   4.8542   5.1844   6.2073   6.6885

          k =-0.5013 0.7238 0.0000 ( 24070 PWs)   bands (ev):

   -45.5729  -4.4438  -4.3587  -4.1796  -4.0981  -4.0607  -3.9557  -3.9182
    -3.8632  -3.8062  -3.7663  -3.7234  -3.6355  -3.5788  -3.5435  -3.5156
    -3.3721  -3.2651  -3.1625  -3.0668  -3.0355  -2.9838  -2.8900  -2.8121
    -2.7269  -2.6782  -2.5763  -2.5394  -2.4280  -2.3929  -2.3314  -2.2778
    -2.1734  -2.1468  -2.0916  -2.0318  -1.9845  -1.9181  -1.8489  -1.7844
    -1.7041  -1.6486  -1.6318  -1.5753  -1.4504  -1.3840  -1.3052  -0.9484
    -0.5694   0.3042   0.5895   1.2888   1.8435   2.6112   2.6973   3.8766
     4.3155   4.6068   5.8353   6.2076   6.4365

          k =-0.5013-0.2874 0.0000 ( 24060 PWs)   bands (ev):

   -45.5729  -4.4706  -4.4089  -4.0809  -4.0450  -3.9793  -3.9095  -3.8500
    -3.8132  -3.7946  -3.7530  -3.7447  -3.7016  -3.6887  -3.6471  -3.3996
    -3.3191  -3.2643  -3.2009  -3.1818  -3.0760  -2.9928  -2.9618  -2.8596
    -2.8320  -2.6031  -2.5728  -2.4808  -2.4772  -2.3919  -2.3203  -2.2232
    -2.1718  -2.1528  -2.1283  -2.0590  -2.0262  -1.9229  -1.9185  -1.7740
    -1.7242  -1.6212  -1.5984  -1.3962  -1.3852  -1.3557  -1.2374  -1.0060
    -0.6049  -0.2578   0.8074   1.2805   1.9926   2.7279   3.5388   3.5644
     4.4036   5.3916   5.6303   5.7638   5.9334

     the Fermi energy is     1.4862 ev

!    total energy              =    -773.41850257 Ry
     estimated scf accuracy    <          7.8E-09 Ry
     smearing contrib. (-TS)   =       0.00124766 Ry
     internal energy E=F+TS    =    -773.41975023 Ry

     The total energy is F=E-TS. E is the sum of the following terms:
     one-electron contribution =   -7797.26117015 Ry
     hartree contribution      =    3967.26630013 Ry
     xc contribution           =    -204.43774566 Ry
     ewald contribution        =    3261.24626474 Ry
     DFT-D3 Dispersion         =      -0.23339929 Ry

     convergence has been achieved in   6 iterations

     negative rho (up, down):  3.043E-05 0.000E+00

     Forces acting on atoms (cartesian axes, Ry/au):

     atom    1 type  2   force =     0.00002742   -0.00001586   -0.00083840
     atom    2 type  2   force =    -0.00015610    0.00009035   -0.00009878
     atom    3 type  2   force =    -0.00000998    0.00000649   -0.00009736
     atom    4 type  2   force =     0.00024397   -0.00014075    0.00027159
     atom    5 type  2   force =    -0.00013864    0.00008050    0.00008328
     atom    6 type  2   force =     0.00001648   -0.00001118    0.00053546
     atom    7 type  2   force =     0.00000545   -0.00000494    0.00054926
     atom    8 type  2   force =     0.00000985   -0.00000463   -0.00009014
     atom    9 type  2   force =    -0.00001024    0.00000729   -0.00029470
     atom   10 type  1   force =     0.00001179   -0.00000728   -0.00002021
     The non-local contrib.  to forces
     atom    1 type  2   force =     0.00185248   -0.00107247    0.01947209
     atom    2 type  2   force =     0.00235954   -0.00136570    0.02950338
     atom    3 type  2   force =     0.00193358   -0.00112014    0.03231816
     atom    4 type  2   force =    -0.00083054    0.00048281   -0.01849981
     atom    5 type  2   force =    -0.00009143    0.00005240    0.00485571
     atom    6 type  2   force =    -0.00249179    0.00144058   -0.03290810
     atom    7 type  2   force =    -0.01261097    0.00730343   -0.17501984
     atom    8 type  2   force =     0.00024156   -0.00013829    0.00270938
     atom    9 type  2   force =    -0.00121277    0.00070475   -0.01836300
     atom   10 type  1   force =     0.00462691   -0.00268173    0.06534679
     The ionic contribution  to forces
     atom    1 type  2   force =     4.28417426   -2.48200788   59.26594000
     atom    2 type  2   force =     7.49196008   -4.34040994  104.19526025
     atom    3 type  2   force =     1.26404356   -0.73228753   17.76263813
     atom    4 type  2   force =     6.75738633   -3.91481552   93.65595476
     atom    5 type  2   force =     0.15230078   -0.08823379    2.34182327
     atom    6 type  2   force =    -2.23960970    1.29734747  -31.15580466
     atom    7 type  2   force =    -8.24083511    4.77414393 -114.44859535
     atom    8 type  2   force =    -5.38096455    3.11754740  -74.79255726
     atom    9 type  2   force =    -6.50291315    3.76753038  -90.36185254
     atom   10 type  1   force =     2.41445749   -1.39881451   33.53719339
     The local contribution  to forces
     atom    1 type  2   force =    -4.28583684    2.48297042  -59.28505227
     atom    2 type  2   force =    -7.49397339    4.34157494 -104.21775887
     atom    3 type  2   force =    -1.26561811    0.73320049  -17.79008735
     atom    4 type  2   force =    -6.75609615    3.91406713  -93.63441929
     atom    5 type  2   force =    -0.15253488    0.08836990   -2.34798221
     atom    6 type  2   force =     2.24168162   -1.29854682   31.18355689
     atom    7 type  2   force =     8.25267646   -4.78100321  114.61345949
     atom    8 type  2   force =     5.38048231   -3.11726854   74.78620696
     atom    9 type  2   force =     6.50369919   -3.76798662   90.37409246
     atom   10 type  1   force =    -2.41893715    1.40141040  -33.60068606
     The core correction contribution to forces
     atom    1 type  2   force =     0.00008400   -0.00004870    0.00160337
     atom    2 type  2   force =    -0.00021248    0.00012304   -0.00322220
     atom    3 type  2   force =    -0.00005587    0.00003229   -0.00099959
     atom    4 type  2   force =    -0.00009945    0.00005754   -0.00093038
     atom    5 type  2   force =     0.00005685   -0.00003292    0.00031198
     atom    6 type  2   force =     0.00004052   -0.00002317    0.00049717
     atom    7 type  2   force =     0.00055382   -0.00032058    0.00761021
     atom    8 type  2   force =     0.00009348   -0.00005435    0.00135302
     atom    9 type  2   force =     0.00021459   -0.00012452    0.00302664
     atom   10 type  1   force =     0.00000000    0.00000000    0.00000000
     The Hubbard contrib.    to forces
     atom    1 type  2   force =     0.00000000    0.00000000    0.00000000
     atom    2 type  2   force =     0.00000000    0.00000000    0.00000000
     atom    3 type  2   force =     0.00000000    0.00000000    0.00000000
     atom    4 type  2   force =     0.00000000    0.00000000    0.00000000
     atom    5 type  2   force =     0.00000000    0.00000000    0.00000000
     atom    6 type  2   force =     0.00000000    0.00000000    0.00000000
     atom    7 type  2   force =     0.00000000    0.00000000    0.00000000
     atom    8 type  2   force =     0.00000000    0.00000000    0.00000000
     atom    9 type  2   force =     0.00000000    0.00000000    0.00000000
     atom   10 type  1   force =     0.00000000    0.00000000    0.00000000
     The SCF correction term to forces
     atom    1 type  2   force =     0.00000165   -0.00000091   -0.00003001
     atom    2 type  2   force =     0.00000800   -0.00000450   -0.00004830
     atom    3 type  2   force =    -0.00000397    0.00000235    0.00001589
     atom    4 type  2   force =    -0.00000761    0.00000426    0.00000643
     atom    5 type  2   force =     0.00000480   -0.00000270    0.00003511
     atom    6 type  2   force =     0.00000090   -0.00000076    0.00000138
     atom    7 type  2   force =     0.00000151   -0.00000140    0.00009065
     atom    8 type  2   force =    -0.00000011    0.00000027   -0.00002846
     atom    9 type  2   force =     0.00000207   -0.00000091    0.00003223
     atom   10 type  1   force =     0.00000364   -0.00000209    0.00000482

     DFT-D3 dispersion contribution to forces:
     atom    1 type  2   force =    -0.00024754    0.00014328   -0.00276415
     atom    2 type  2   force =    -0.00029726    0.00017211   -0.00382558
     atom    3 type  2   force =    -0.00030858    0.00017862   -0.00397515
     atom    4 type  2   force =    -0.00010802    0.00006264   -0.00183268
     atom    5 type  2   force =     0.00012584   -0.00007279    0.00104686
     atom    6 type  2   force =     0.00039553   -0.00022888    0.00520023
     atom    7 type  2   force =     0.00022035   -0.00012751    0.00301154
     atom    8 type  2   force =     0.00015775   -0.00009153    0.00223366
     atom    9 type  2   force =     0.00020043   -0.00011620    0.00277696
     atom   10 type  1   force =    -0.00013850    0.00008024   -0.00187170

     Total force =     0.001275     Total SCF correction =     0.000123


     Computing stress (Cartesian axis) and pressure


     negative rho (up, down):  3.043E-05 0.000E+00
          total   stress  (Ry/bohr**3)                   (kbar)     P=      -12.13
  -0.00010116  -0.00000067   0.00000434          -14.88       -0.10        0.64
  -0.00000067  -0.00010192  -0.00000251           -0.10      -14.99       -0.37
   0.00000434  -0.00000251  -0.00004427            0.64       -0.37       -6.51

     Energy error            =      8.0E-06 Ry
     Gradient error          =      8.4E-04 Ry/Bohr

     bfgs converged in  55 scf cycles and  54 bfgs steps
     (criteria: energy <  1.0E-04 Ry, force <  1.0E-03 Ry/Bohr)

     End of BFGS Geometry Optimization

     Final energy             =    -773.4185025686 Ry

     File ./Ag_mp-2646971_111_ontop_0/Ag_mp-2646971_111_ontop_0.bfgs deleted, as requested
Begin final coordinates

ATOMIC_POSITIONS (angstrom)
Ag            4.4274621374        3.2979711570       15.5558716364
Ag            4.5259757919        0.5348747385       16.9675675312
Ag            4.3354002257        0.6453206007       14.1607731508
Ag            2.1668263052        1.9016362874       16.8131371178
Ag            1.9718070237        2.0146618930       13.9179859173
Ag            4.2371049462        3.4082990370       12.7654669643
Ag            4.0416411426        3.5215463334       10.0428955295
Ag            4.1337357480        0.7621653588       11.3279440075
Ag            1.7665834509        2.1335633283       11.0542493940
Li            4.6096648602        3.1924032278       18.1480233178
End final coordinates



     Writing all to output data dir ./Ag_mp-2646971_111_ontop_0/Ag_mp-2646971_111_ontop_0.save/

     init_run     :      2.74s CPU      3.69s WALL (       1 calls)
     electrons    :    573.11s CPU    619.63s WALL (      55 calls)
     update_pot   :     41.46s CPU     43.29s WALL (      54 calls)
     forces       :     32.32s CPU     34.35s WALL (      55 calls)
     force_dftd3  :      0.43s CPU      0.81s WALL (      55 calls)
     stress       :    124.71s CPU    127.56s WALL (      55 calls)
     stres_dftd3  :      0.51s CPU      0.86s WALL (      55 calls)

     Called by init_run:
     wfcinit      :      0.60s CPU      1.11s WALL (       1 calls)
     potinit      :      0.79s CPU      0.81s WALL (       1 calls)
     hinit0       :      1.16s CPU      1.54s WALL (       1 calls)

     Called by electrons:
     c_bands      :    495.47s CPU    528.32s WALL (     447 calls)
     sum_band     :     61.17s CPU     65.57s WALL (     447 calls)
     v_of_rho     :      7.31s CPU      9.53s WALL (     473 calls)
     newd         :      6.76s CPU      7.07s WALL (     473 calls)
     mix_rho      :      0.79s CPU      0.81s WALL (     447 calls)
     energy_dftd3 :      0.09s CPU      0.09s WALL (      55 calls)

     Called by c_bands:
     init_us_2    :      2.40s CPU      2.50s WALL (    9045 calls)
     init_us_2:cp :      2.38s CPU      2.49s WALL (    9045 calls)
     cegterg      :    437.58s CPU    459.49s WALL (    4044 calls)

     Called by *egterg:
     cdiaghg      :     85.43s CPU     86.06s WALL (   18429 calls)
     h_psi        :    279.83s CPU    297.33s WALL (   19206 calls)
     s_psi        :     13.84s CPU     13.99s WALL (   19206 calls)
     g_psi        :      0.88s CPU      0.89s WALL (   15153 calls)

     Called by h_psi:
     h_psi:calbec :     24.13s CPU     26.99s WALL (   19206 calls)
     vloc_psi     :    240.04s CPU    254.49s WALL (   19206 calls)
     add_vuspsi   :     14.55s CPU     14.74s WALL (   19206 calls)

     General routines
     calbec       :     38.80s CPU     42.93s WALL (   25704 calls)
     fft          :     10.76s CPU     14.83s WALL (    7497 calls)
     ffts         :      1.07s CPU      1.80s WALL (     920 calls)
     fftw         :    253.88s CPU    268.59s WALL ( 1659161 calls)
     interpolate  :      1.00s CPU      1.35s WALL (     473 calls)

     Parallel routines

     PWSCF        :  12m56.63s CPU  13m52.78s WALL


   This run was terminated on:   6:49:15  24Jul2025            

=------------------------------------------------------------------------------=
   JOB DONE.
=------------------------------------------------------------------------------=
