
     Program PWSCF v.7.2 starts on 24Jul2025 at  6:33:34 

     This program is part of the open-source Quantum ESPRESSO suite
     for quantum simulation of materials; please cite
         "P. Giannozzi et al., J. Phys.:Condens. Matter 21 395502 (2009);
         "P. Giannozzi et al., J. Phys.:Condens. Matter 29 465901 (2017);
         "P. Giannozzi et al., J. Chem. Phys. 152 154105 (2020);
          URL http://www.quantum-espresso.org", 
     in publications or presentations arising from this work. More details at
     http://www.quantum-espresso.org/quote

     Parallel version (MPI & OpenMP), running on     192 processor cores
     Number of MPI processes:               192
     Threads/MPI process:                     1

     MPI processes distributed on     3 nodes
     240862 MiB available memory on the printing compute node when the environment starts

     Reading input from Ag_mp-2646971_110_ontop_0.in

     Current dimensions of program PWSCF are:
     Max number of different atomic species (ntypx) = 10
     Max number of k-points (npk) =  40000
     Max angular momentum in pseudopotentials (lmaxx) =  4
     Message from routine iosys:
     restart disabled: needed files not found

     K-points division:     npool     =       4
     R & G space division:  proc/nbgrp/npool/nimage =      48
     Subspace diagonalization in iterative solution of the eigenvalue problem:
     a serial algorithm will be used


     Parallelization info
     --------------------
     sticks:   dense  smooth     PW     G-vecs:    dense   smooth      PW
     Min          23      10      3                 6513     1878     342
     Max          24      11      4                 6550     1914     361
     Sum        1105     483    159               313371    91489   16791

     Using Slab Decomposition



     bravais-lattice index     =            0
     lattice parameter (alat)  =       5.4191  a.u.
     unit-cell volume          =    1658.9726 (a.u.)^3
     number of atoms/cell      =            7
     number of atomic types    =            2
     number of electrons       =        69.00
     number of Kohn-Sham states=           42
     kinetic-energy cutoff     =      55.0000  Ry
     charge density cutoff     =     500.0000  Ry
     scf convergence threshold =      1.0E-06
     mixing beta               =       0.3000
     number of iterations used =            8  plain     mixing
     energy convergence thresh.=      1.0E-04
     force convergence thresh. =      1.0E-03
     Exchange-correlation= PBE
                           (   1   4   3   4   0   0   0)
     nstep                     =          500


     celldm(1)=   5.419124  celldm(2)=   0.000000  celldm(3)=   0.000000
     celldm(4)=   0.000000  celldm(5)=   0.000000  celldm(6)=   0.000000

     crystal axes: (cart. coord. in units of alat)
               a(1) = (   1.000000   0.000000   0.000000 )  
               a(2) = (  -0.333333   0.942809   0.000000 )  
               a(3) = (   0.000000   0.000000  11.056769 )  

     reciprocal axes: (cart. coord. in units 2 pi/alat)
               b(1) = (  1.000000  0.353553 -0.000000 )  
               b(2) = (  0.000000  1.060660  0.000000 )  
               b(3) = ( -0.000000 -0.000000  0.090442 )  


     PseudoPot. # 1 for Li read from file:
     /home/ecastro/trabajo_final/pseudos/Li.pbe-s-rrkjus_psl.1.0.0.UPF
     MD5 check sum: 9f98d2529904d60b716d33989e9bc179
     Pseudo is Ultrasoft, Zval =  3.0
     Generated using &quot;atomic&quot; code by A. Dal Corso  v.6.3MaX
     Using radial grid of 1017 points,  4 beta functions with: 
                l(1) =   0
                l(2) =   0
                l(3) =   1
                l(4) =   1
     Q(r) pseudized with 0 coefficients 


     PseudoPot. # 2 for Ag read from file:
     /home/ecastro/trabajo_final/pseudos/Ag.pbe-n-rrkjus_psl.1.0.0.UPF
     MD5 check sum: 81cdf87bacf708300839c66ee23ce017
     Pseudo is Ultrasoft + core correction, Zval = 11.0
     Generated using &quot;atomic&quot; code by A. Dal Corso  v.6.2.2
     Using radial grid of 1237 points,  6 beta functions with: 
                l(1) =   0
                l(2) =   0
                l(3) =   1
                l(4) =   1
                l(5) =   2
                l(6) =   2
     Q(r) pseudized with 0 coefficients 


     atomic species   valence    mass     pseudopotential
        Li             3.00     6.94100     Li( 1.00)
        Ag            11.00   107.86820     Ag( 1.00)

     No symmetry found



   Cartesian axes

     site n.     atom                  positions (alat units)
         1           Ag  tau(   1) = (  -0.0000114   0.7071192   7.5445885  )
         2           Ag  tau(   2) = (   0.6666549   0.2357106   6.7356889  )
         3           Ag  tau(   3) = (   0.0000000   0.7071068   5.9366330  )
         4           Ag  tau(   4) = (   0.6666667   0.2357023   5.1201364  )
         5           Ag  tau(   5) = (   0.0000000   0.7071068   4.3036398  )
         6           Ag  tau(   6) = (   0.6666667   0.2357023   3.4871433  )
         7           Li  tau(   7) = (  -0.0000114   0.7071192   8.2420172  )

     --------------------------------------------
     DFT-D3 Dispersion Correction (no 3-body):
     --------------------------------------------
       Reference C6 values for interpolation: 

         atom   Coordination number   C6
         Li         0.000          2326.89
         Li         0.987           170.64
         Ag         0.000           853.49
         Ag         0.968           537.23

       Values used:

         atom   Coordination number  R0_AB[au]  C6      C8
         Ag         7.309            3.147    537.23  47741.54
         Ag         7.733            3.147    537.23  47741.54
         Ag         7.659            3.147    537.23  47741.54
         Ag         7.511            3.147    537.23  47741.54
         Ag         7.500            3.147    537.23  47741.54
         Ag         5.503            3.147    537.23  47741.54
         Li         5.985            3.303    170.64  12899.87

         Molecular C6 ( Ry / a.u.^6 ) =     22982.53


     number of k points=    34  Methfessel-Paxton smearing, width (Ry)=  0.0300
                       cart. coord. in units 2pi/alat
        k(    1) = (   0.0000000   0.0000000   0.0000000), wk =   0.0312500
        k(    2) = (   0.0000000   0.1325825   0.0000000), wk =   0.0625000
        k(    3) = (   0.0000000   0.2651650   0.0000000), wk =   0.0625000
        k(    4) = (   0.0000000   0.3977476   0.0000000), wk =   0.0625000
        k(    5) = (   0.0000000  -0.5303301   0.0000000), wk =   0.0312500
        k(    6) = (   0.1250000   0.0441942   0.0000000), wk =   0.0625000
        k(    7) = (   0.1250000   0.1767767   0.0000000), wk =   0.0625000
        k(    8) = (   0.1250000   0.3093592   0.0000000), wk =   0.0625000
        k(    9) = (   0.1250000   0.4419417   0.0000000), wk =   0.0625000
        k(   10) = (   0.1250000  -0.4861359   0.0000000), wk =   0.0625000
        k(   11) = (   0.1250000  -0.3535534   0.0000000), wk =   0.0625000
        k(   12) = (   0.1250000  -0.2209709   0.0000000), wk =   0.0625000
        k(   13) = (   0.1250000  -0.0883883   0.0000000), wk =   0.0625000
        k(   14) = (   0.2500000   0.0883883   0.0000000), wk =   0.0625000
        k(   15) = (   0.2500000   0.2209709   0.0000000), wk =   0.0625000
        k(   16) = (   0.2500000   0.3535534   0.0000000), wk =   0.0625000
        k(   17) = (   0.2500000   0.4861359   0.0000000), wk =   0.0625000
        k(   18) = (   0.2500000  -0.4419417   0.0000000), wk =   0.0625000
        k(   19) = (   0.2500000  -0.3093592   0.0000000), wk =   0.0625000
        k(   20) = (   0.2500000  -0.1767767   0.0000000), wk =   0.0625000
        k(   21) = (   0.2500000  -0.0441942   0.0000000), wk =   0.0625000
        k(   22) = (   0.3750000   0.1325825   0.0000000), wk =   0.0625000
        k(   23) = (   0.3750000   0.2651650   0.0000000), wk =   0.0625000
        k(   24) = (   0.3750000   0.3977476   0.0000000), wk =   0.0625000
        k(   25) = (   0.3750000   0.5303301   0.0000000), wk =   0.0625000
        k(   26) = (   0.3750000  -0.3977476   0.0000000), wk =   0.0625000
        k(   27) = (   0.3750000  -0.2651650   0.0000000), wk =   0.0625000
        k(   28) = (   0.3750000  -0.1325825   0.0000000), wk =   0.0625000
        k(   29) = (   0.3750000  -0.0000000   0.0000000), wk =   0.0625000
        k(   30) = (  -0.5000000  -0.1767767   0.0000000), wk =   0.0312500
        k(   31) = (  -0.5000000  -0.0441942   0.0000000), wk =   0.0625000
        k(   32) = (  -0.5000000   0.0883883   0.0000000), wk =   0.0625000
        k(   33) = (  -0.5000000   0.2209709   0.0000000), wk =   0.0625000
        k(   34) = (  -0.5000000  -0.7071068   0.0000000), wk =   0.0312500

     Dense  grid:   313371 G-vectors     FFT dimensions: (  40,  40, 432)

     Smooth grid:    91489 G-vectors     FFT dimensions: (  25,  25, 288)

     Estimated max dynamical RAM per process >      14.50 MB

     Estimated total dynamical RAM >       2.49 GB
     Cannot read rho : file not found

     Initial potential from superposition of free atoms

     starting charge      68.9930, renormalised to      69.0000

     negative rho (up, down):  3.444E-05 0.000E+00
     Message from routine qexsd_readschema :
     xml data file ./Ag_mp-2646971_110_ontop_0/Ag_mp-2646971_110_ontop_0.save/data-fi
     Cannot read wfcs: file not found
     Starting wfcs are   59 randomized atomic wfcs

     total cpu time spent up to now is        6.9 secs

     per-process dynamical memory:   173.7 Mb

     Self-consistent Calculation

     iteration #  1     ecut=    55.00 Ry     beta= 0.30
     Davidson diagonalization with overlap
     c_bands:  1 eigenvalues not converged
     c_bands:  1 eigenvalues not converged
     c_bands:  2 eigenvalues not converged
     ethr =  1.00E-05,  avg # of iterations = 18.7

     negative rho (up, down):  2.767E-05 0.000E+00

     total cpu time spent up to now is        8.6 secs

     total energy              =    -520.36700581 Ry
     estimated scf accuracy    <       0.48482096 Ry

     iteration #  2     ecut=    55.00 Ry     beta= 0.30
     Davidson diagonalization with overlap
     ethr =  7.03E-04,  avg # of iterations =  7.1

     negative rho (up, down):  4.139E-05 0.000E+00

     total cpu time spent up to now is        9.2 secs

     total energy              =    -518.23950464 Ry
     estimated scf accuracy    <     119.27923788 Ry

     iteration #  3     ecut=    55.00 Ry     beta= 0.30
     Davidson diagonalization with overlap
     ethr =  7.03E-04,  avg # of iterations =  8.2

     negative rho (up, down):  3.957E-05 0.000E+00

     total cpu time spent up to now is        9.8 secs

     total energy              =    -520.52395019 Ry
     estimated scf accuracy    <       0.62691119 Ry

     iteration #  4     ecut=    55.00 Ry     beta= 0.30
     Davidson diagonalization with overlap
     ethr =  7.03E-04,  avg # of iterations =  1.9

     negative rho (up, down):  1.767E-05 0.000E+00

     total cpu time spent up to now is       10.1 secs

     total energy              =    -520.53902473 Ry
     estimated scf accuracy    <       0.71707255 Ry

     iteration #  5     ecut=    55.00 Ry     beta= 0.30
     Davidson diagonalization with overlap
     ethr =  7.03E-04,  avg # of iterations =  1.1

     negative rho (up, down):  1.671E-05 0.000E+00

     total cpu time spent up to now is       10.3 secs

     total energy              =    -520.55767148 Ry
     estimated scf accuracy    <       0.04812156 Ry

     iteration #  6     ecut=    55.00 Ry     beta= 0.30
     Davidson diagonalization with overlap
     ethr =  6.97E-05,  avg # of iterations =  3.7

     negative rho (up, down):  7.717E-06 0.000E+00

     total cpu time spent up to now is       10.7 secs

     total energy              =    -520.55869019 Ry
     estimated scf accuracy    <       0.00878562 Ry

     iteration #  7     ecut=    55.00 Ry     beta= 0.30
     Davidson diagonalization with overlap
     ethr =  1.27E-05,  avg # of iterations =  5.6

     negative rho (up, down):  6.149E-06 0.000E+00

     total cpu time spent up to now is       11.2 secs

     total energy              =    -520.55900103 Ry
     estimated scf accuracy    <       0.00154761 Ry

     iteration #  8     ecut=    55.00 Ry     beta= 0.30
     Davidson diagonalization with overlap
     ethr =  2.24E-06,  avg # of iterations =  6.9

     negative rho (up, down):  6.675E-06 0.000E+00

     total cpu time spent up to now is       11.6 secs

     total energy              =    -520.55911019 Ry
     estimated scf accuracy    <       0.00157425 Ry

     iteration #  9     ecut=    55.00 Ry     beta= 0.30
     Davidson diagonalization with overlap
     ethr =  2.24E-06,  avg # of iterations =  1.3

     negative rho (up, down):  7.925E-06 0.000E+00

     total cpu time spent up to now is       11.9 secs

     total energy              =    -520.55916852 Ry
     estimated scf accuracy    <       0.00007770 Ry

     iteration # 10     ecut=    55.00 Ry     beta= 0.30
     Davidson diagonalization with overlap
     ethr =  1.13E-07,  avg # of iterations =  1.9

     negative rho (up, down):  8.921E-06 0.000E+00

     total cpu time spent up to now is       12.2 secs

     total energy              =    -520.55917461 Ry
     estimated scf accuracy    <       0.00002438 Ry

     iteration # 11     ecut=    55.00 Ry     beta= 0.30
     Davidson diagonalization with overlap
     ethr =  3.53E-08,  avg # of iterations =  2.0

     negative rho (up, down):  8.975E-06 0.000E+00

     total cpu time spent up to now is       12.5 secs

     total energy              =    -520.55917549 Ry
     estimated scf accuracy    <       0.00000207 Ry

     iteration # 12     ecut=    55.00 Ry     beta= 0.30
     Davidson diagonalization with overlap
     ethr =  3.00E-09,  avg # of iterations =  4.7

     negative rho (up, down):  9.053E-06 0.000E+00

     total cpu time spent up to now is       12.9 secs

     total energy              =    -520.55917602 Ry
     estimated scf accuracy    <       0.00000182 Ry

     iteration # 13     ecut=    55.00 Ry     beta= 0.30
     Davidson diagonalization with overlap
     ethr =  2.64E-09,  avg # of iterations =  1.4

     negative rho (up, down):  9.048E-06 0.000E+00

     total cpu time spent up to now is       13.2 secs

     End of self-consistent calculation

          k = 0.0000 0.0000 0.0000 ( 11533 PWs)   bands (ev):

   -43.5880  -3.7778  -3.3263  -2.7407  -2.6133  -2.5121  -2.3115  -1.9765
    -1.8774  -1.7221  -1.5208  -1.4702  -1.3577  -1.2558  -1.2438  -1.2139
    -1.0609  -0.9933  -0.5854  -0.4979  -0.4930  -0.3062  -0.2016  -0.1745
    -0.0978  -0.0766  -0.0700  -0.0478  -0.0246  -0.0016   0.0287   0.0729
     0.1672   0.4362   0.7819   0.8911   2.0584   3.2546   3.8407   6.8238
     7.3919   7.7891

          k = 0.0000 0.1326 0.0000 ( 11489 PWs)   bands (ev):

   -43.5858  -3.4261  -3.0009  -2.4900  -2.3834  -2.3040  -2.0855  -1.8990
    -1.8019  -1.6476  -1.5554  -1.4350  -1.3653  -1.3127  -1.2669  -1.2508
    -1.0773  -0.8937  -0.8367  -0.6250  -0.4650  -0.3758  -0.3145  -0.2271
    -0.2094  -0.1557  -0.1308  -0.0804  -0.0320   0.0192   0.0303   0.0963
     0.1799   0.4291   0.6109   1.6055   2.6438   3.7274   4.5641   7.1158
     7.6997   8.0522

          k = 0.0000 0.2652 0.0000 ( 11469 PWs)   bands (ev):

   -43.5807  -2.6149  -2.4459  -2.2519  -2.1803  -2.0671  -1.9377  -1.8522
    -1.6963  -1.6140  -1.5789  -1.5265  -1.4451  -1.3190  -1.0017  -0.9232
    -0.8650  -0.7578  -0.6074  -0.5345  -0.4214  -0.3501  -0.3097  -0.2372
    -0.2137  -0.1889  -0.1003  -0.0377   0.0343   0.0550   0.1181   0.1809
     0.2207   0.3839   1.4271   2.7177   3.6995   4.9022   6.2367   7.9384
     8.6099   8.8511

          k = 0.0000 0.3977 0.0000 ( 11401 PWs)   bands (ev):

   -43.5754  -2.4826  -2.4344  -2.2991  -2.2844  -2.1574  -1.9785  -1.9204
    -1.8912  -1.8087  -1.7631  -1.6206  -1.4628  -1.0845  -0.9423  -0.6062
    -0.5265  -0.3691  -0.2451  -0.1912  -0.1367  -0.0930  -0.0496  -0.0287
     0.0107   0.0617   0.1403   0.2568   0.2889   0.4217   0.4782   1.0361
     1.1593   1.5610   2.7072   4.0615   5.0693   6.2170   7.0855   7.5891
     8.0171   8.4799

          k = 0.0000-0.5303 0.0000 ( 11418 PWs)   bands (ev):

   -43.5734  -2.5851  -2.5360  -2.3672  -2.3624  -2.2055  -2.0254  -1.9660
    -1.9574  -1.8742  -1.8682  -1.7122  -1.5244  -0.9956  -0.7447  -0.5599
    -0.3572  -0.2502  -0.1789  -0.1265  -0.1026  -0.0929  -0.0330   0.0039
     0.0589   0.0953   0.2714   0.3522   0.4418   0.6986   0.7478   2.8759
     3.5081   3.5677   3.6263   3.6504   4.0311   5.7601   5.8570   6.8930
     7.6649   7.9695

          k = 0.1250 0.0442 0.0000 ( 11489 PWs)   bands (ev):

   -43.5858  -3.4261  -3.0009  -2.4900  -2.3834  -2.3040  -2.0855  -1.8990
    -1.8019  -1.6476  -1.5554  -1.4350  -1.3653  -1.3127  -1.2669  -1.2508
    -1.0773  -0.8937  -0.8367  -0.6250  -0.4650  -0.3758  -0.3145  -0.2271
    -0.2094  -0.1557  -0.1308  -0.0804  -0.0320   0.0192   0.0303   0.0963
     0.1799   0.4291   0.6109   1.6055   2.6438   3.7274   4.5641   7.1158
     7.7000   8.0522

          k = 0.1250 0.1768 0.0000 ( 11509 PWs)   bands (ev):

   -43.5833  -2.8871  -2.5326  -2.1701  -1.9899  -1.9807  -1.9396  -1.8542
    -1.7972  -1.7316  -1.5745  -1.5475  -1.5332  -1.3585  -1.3544  -1.2409
    -1.2199  -0.9424  -0.8291  -0.6669  -0.5225  -0.3770  -0.3316  -0.2196
    -0.1788  -0.0653  -0.0285  -0.0153   0.0026   0.0675   0.0805   0.0928
     0.1308   0.3526   1.2483   2.3917   3.3309   4.4618   5.6078   7.5917
     8.2084   8.4953

          k = 0.1250 0.3094 0.0000 ( 11436 PWs)   bands (ev):

   -43.5780  -2.2361  -2.1577  -2.0590  -2.0510  -1.9320  -1.8824  -1.8395
    -1.7421  -1.6820  -1.5503  -1.4503  -1.3874  -1.1819  -1.0125  -0.9719
    -0.8553  -0.8279  -0.7962  -0.5860  -0.4980  -0.4465  -0.2894  -0.2510
    -0.0914  -0.0323   0.0197   0.0459   0.0859   0.0941   0.1020   0.4670
     0.5881   1.2279   2.3237   3.5695   4.4722   5.7683   7.3202   8.4960
     9.2676   9.3662

          k = 0.1250 0.4419 0.0000 ( 11400 PWs)   bands (ev):

   -43.5733  -2.3768  -2.3072  -2.1625  -2.1301  -2.0502  -1.9121  -1.8982
    -1.7959  -1.7686  -1.7236  -1.5342  -1.3948  -1.0851  -0.9685  -0.7538
    -0.6449  -0.5379  -0.3962  -0.2947  -0.2676  -0.1176  -0.0761  -0.0557
     0.0088   0.0418   0.0802   0.1045   0.2231   0.4249   0.4517   2.0084
     2.2386   2.8593   3.8451   4.9659   5.8370   6.2756   6.5743   7.3972
     7.9187   8.3314

          k = 0.1250-0.4861 0.0000 ( 11392 PWs)   bands (ev):

   -43.5718  -2.4262  -2.3559  -2.2286  -2.1614  -2.0223  -1.9115  -1.8619
    -1.8324  -1.7243  -1.7012  -1.5370  -1.4610  -1.2103  -1.0336  -0.7715
    -0.7575  -0.5587  -0.4114  -0.2627  -0.2415  -0.2147  -0.1364  -0.1084
    -0.0543  -0.0052   0.0477   0.3094   0.4836   0.7211   0.7455   3.0452
     3.3370   3.6281   4.1964   4.7411   4.9673   6.0453   6.1246   7.1468
     7.8306   8.2284

          k = 0.1250-0.3536 0.0000 ( 11413 PWs)   bands (ev):

   -43.5745  -2.2708  -2.1938  -2.0930  -2.0323  -1.9087  -1.7746  -1.7589
    -1.6491  -1.6412  -1.5523  -1.5215  -1.4876  -1.3684  -1.3180  -1.0775
    -0.9651  -0.7954  -0.6712  -0.5501  -0.3527  -0.2400  -0.1900  -0.1692
    -0.1092  -0.0202   0.0140   0.2515   0.2999   0.4921   0.5241   1.0168
     1.1299   1.5774   2.5749   3.8590   4.8510   6.1538   7.8057   8.2060
     8.6939   9.2531

          k = 0.1250-0.2210 0.0000 ( 11482 PWs)   bands (ev):

   -43.5797  -2.6424  -2.3367  -2.0747  -1.9805  -1.9143  -1.7335  -1.6670
    -1.5458  -1.4810  -1.4073  -1.3888  -1.3540  -1.3262  -1.2360  -1.1061
    -1.0691  -1.0002  -0.8416  -0.7557  -0.6543  -0.5286  -0.4816  -0.3562
    -0.3535  -0.3124  -0.2733  -0.1798  -0.1180   0.0290   0.1374   0.3047
     0.4712   0.5541   1.2989   2.5203   3.5269   4.7263   5.9587   7.8782
     8.5120   8.7830

          k = 0.1250-0.0884 0.0000 ( 11507 PWs)   bands (ev):

   -43.5844  -3.3093  -2.8718  -2.4027  -2.2811  -2.2339  -1.9751  -1.6856
    -1.5862  -1.4481  -1.4108  -1.3478  -1.2635  -1.1859  -1.1621  -1.0698
    -1.0342  -0.9754  -0.9625  -0.8639  -0.7057  -0.6464  -0.6457  -0.4774
    -0.4350  -0.3087  -0.2663  -0.1961  -0.1286  -0.0268   0.0718   0.2173
     0.3888   0.6173   0.7455   1.6415   2.6967   3.8330   4.6982   7.2167
     7.8029   8.1466

          k = 0.2500 0.0884 0.0000 ( 11469 PWs)   bands (ev):

   -43.5807  -2.6149  -2.4459  -2.2519  -2.1803  -2.0671  -1.9377  -1.8522
    -1.6963  -1.6140  -1.5789  -1.5265  -1.4451  -1.3190  -1.0017  -0.9232
    -0.8650  -0.7578  -0.6074  -0.5345  -0.4214  -0.3501  -0.3097  -0.2372
    -0.2137  -0.1889  -0.1003  -0.0377   0.0343   0.0550   0.1181   0.1809
     0.2207   0.3839   1.4271   2.7177   3.6995   4.9022   6.2367   7.9384
     8.6100   8.8511

          k = 0.2500 0.2210 0.0000 ( 11436 PWs)   bands (ev):

   -43.5780  -2.2361  -2.1577  -2.0590  -2.0510  -1.9320  -1.8824  -1.8395
    -1.7421  -1.6820  -1.5503  -1.4503  -1.3874  -1.1819  -1.0125  -0.9719
    -0.8553  -0.8279  -0.7962  -0.5860  -0.4980  -0.4465  -0.2894  -0.2510
    -0.0914  -0.0323   0.0197   0.0459   0.0859   0.0941   0.1020   0.4670
     0.5881   1.2279   2.3237   3.5695   4.4722   5.7683   7.3202   8.4960
     9.2677   9.3662

          k = 0.2500 0.3536 0.0000 ( 11393 PWs)   bands (ev):

   -43.5733  -2.1034  -2.0365  -1.8992  -1.8552  -1.7076  -1.6629  -1.5858
    -1.5354  -1.5340  -1.5228  -1.4084  -1.3402  -1.3120  -1.1884  -1.0108
    -0.9381  -0.8950  -0.8457  -0.6738  -0.6316  -0.4702  -0.4049  -0.1634
    -0.1102   0.0054   0.0775   0.0927   0.0998   0.1749   0.1965   1.6286
     1.9885   2.7565   3.8241   4.9477   5.8477   7.2213   8.3567   8.9167
     9.1756   9.4715

          k = 0.2500 0.4861 0.0000 ( 11399 PWs)   bands (ev):

   -43.5693  -2.1493  -2.0733  -1.9917  -1.9521  -1.8771  -1.7582  -1.7180
    -1.6217  -1.5643  -1.5326  -1.4545  -1.3871  -1.1894  -1.0641  -1.0009
    -0.9313  -0.9153  -0.7260  -0.5358  -0.4445  -0.3374  -0.2760  -0.1429
    -0.0126   0.0551   0.0883   0.1911   0.2706   0.4594   0.4753   3.7068
     4.1009   4.8047   5.6196   6.0997   6.3900   6.7812   7.0064   7.8013
     8.0469   8.8399

          k = 0.2500-0.4419 0.0000 ( 11392 PWs)   bands (ev):

   -43.5683  -2.1983  -2.1052  -2.0416  -2.0305  -1.9948  -1.9084  -1.8324
    -1.7088  -1.6909  -1.5817  -1.4608  -1.3750  -1.2204  -1.0987  -0.9387
    -0.8861  -0.7945  -0.6894  -0.5281  -0.3357  -0.2993  -0.2344  -0.1422
    -0.1160   0.0136   0.1160   0.3202   0.4956   0.6752   0.7031   3.2484
     3.5565   4.1386   4.9710   5.9106   6.7147   6.9521   7.1376   7.9789
     8.5098   8.9215

          k = 0.2500-0.3094 0.0000 ( 11406 PWs)   bands (ev):

   -43.5710  -2.2043  -2.0781  -2.0521  -1.9733  -1.9172  -1.8929  -1.7836
    -1.7710  -1.6452  -1.5978  -1.4365  -1.3441  -1.1377  -1.0544  -0.9045
    -0.7948  -0.6996  -0.6524  -0.5761  -0.5103  -0.4138  -0.3052  -0.1827
    -0.1800   0.0026   0.1327   0.2117   0.2490   0.4273   0.5376   1.0703
     1.3975   2.0672   3.0282   4.1844   5.1393   6.4535   8.0159   9.2507
     9.8879  10.0915

          k = 0.2500-0.1768 0.0000 ( 11422 PWs)   bands (ev):

   -43.5756  -2.4257  -2.1147  -2.0476  -1.8832  -1.7648  -1.6300  -1.6142
    -1.6017  -1.5580  -1.4282  -1.3487  -1.1666  -1.0805  -0.9738  -0.9698
    -0.8771  -0.8037  -0.7466  -0.7411  -0.6452  -0.5988  -0.4413  -0.4332
    -0.3592  -0.3473  -0.3171  -0.2812  -0.2075  -0.1279   0.2825   0.3621
     0.6583   0.9332   1.8191   3.0191   3.9969   5.2536   6.5994   8.3565
     9.0018   9.2693

          k = 0.2500-0.0442 0.0000 ( 11482 PWs)   bands (ev):

   -43.5797  -2.6424  -2.3367  -2.0747  -1.9805  -1.9143  -1.7335  -1.6670
    -1.5458  -1.4810  -1.4073  -1.3888  -1.3540  -1.3262  -1.2360  -1.1061
    -1.0691  -1.0002  -0.8416  -0.7557  -0.6543  -0.5286  -0.4816  -0.3562
    -0.3535  -0.3124  -0.2733  -0.1798  -0.1180   0.0290   0.1374   0.3047
     0.4712   0.5541   1.2989   2.5203   3.5269   4.7263   5.9587   7.8782
     8.5120   8.7830

          k = 0.3750 0.1326 0.0000 ( 11401 PWs)   bands (ev):

   -43.5754  -2.4826  -2.4344  -2.2991  -2.2844  -2.1574  -1.9785  -1.9204
    -1.8912  -1.8087  -1.7631  -1.6206  -1.4628  -1.0845  -0.9423  -0.6062
    -0.5265  -0.3691  -0.2451  -0.1912  -0.1367  -0.0930  -0.0496  -0.0287
     0.0107   0.0617   0.1403   0.2568   0.2889   0.4217   0.4782   1.0361
     1.1593   1.5610   2.7072   4.0615   5.0693   6.2170   7.0855   7.5891
     8.0171   8.4798

          k = 0.3750 0.2652 0.0000 ( 11400 PWs)   bands (ev):

   -43.5733  -2.3768  -2.3072  -2.1625  -2.1301  -2.0502  -1.9121  -1.8982
    -1.7959  -1.7686  -1.7236  -1.5342  -1.3948  -1.0851  -0.9685  -0.7538
    -0.6449  -0.5379  -0.3962  -0.2947  -0.2676  -0.1176  -0.0761  -0.0557
     0.0088   0.0418   0.0802   0.1045   0.2231   0.4249   0.4517   2.0084
     2.2386   2.8593   3.8451   4.9659   5.8370   6.2756   6.5743   7.3972
     7.9186   8.3314

          k = 0.3750 0.3977 0.0000 ( 11399 PWs)   bands (ev):

   -43.5693  -2.1493  -2.0733  -1.9917  -1.9521  -1.8771  -1.7582  -1.7180
    -1.6217  -1.5643  -1.5326  -1.4545  -1.3871  -1.1894  -1.0641  -1.0009
    -0.9313  -0.9153  -0.7260  -0.5358  -0.4445  -0.3374  -0.2760  -0.1429
    -0.0126   0.0551   0.0883   0.1911   0.2706   0.4594   0.4753   3.7068
     4.1009   4.8047   5.6196   6.0997   6.3900   6.7812   7.0063   7.8013
     8.0469   8.8399

          k = 0.3750 0.5303 0.0000 ( 11360 PWs)   bands (ev):

   -43.5657  -2.2144  -2.1298  -2.0824  -2.0432  -2.0427  -1.9467  -1.8448
    -1.8015  -1.7509  -1.6584  -1.5409  -1.4980  -1.3424  -1.2189  -0.8807
    -0.8363  -0.5143  -0.4990  -0.2072  -0.1809   0.0007   0.0242   0.1000
     0.1109   0.2007   0.2233   0.2260   0.2669   0.4424   0.4832   5.3975
     5.9405   6.0965   6.4248   6.9072   7.1340   7.5642   7.6823   7.9656
     8.0811   8.3617

          k = 0.3750-0.3977 0.0000 ( 11395 PWs)   bands (ev):

   -43.5649  -2.4052  -2.3654  -2.3501  -2.2186  -2.2009  -2.1394  -1.9813
    -1.9137  -1.8604  -1.8013  -1.6854  -1.3903  -1.2587  -0.9676  -0.7457
    -0.6719  -0.3071  -0.2324  -0.1624  -0.1131   0.0603   0.1000   0.1869
     0.2421   0.3516   0.4257   0.5152   0.5763   0.6256   0.6418   3.4333
     3.9445   4.7663   5.7254   6.6798   7.6507   8.2313   8.4930   8.7571
     8.8316   9.0891

          k = 0.3750-0.2652 0.0000 ( 11394 PWs)   bands (ev):

   -43.5670  -2.4155  -2.3421  -2.3206  -2.2060  -2.1438  -2.1241  -1.9664
    -1.8344  -1.8289  -1.7656  -1.5603  -1.3459  -1.1015  -0.9590  -0.7396
    -0.5258  -0.3646  -0.2870  -0.1817  -0.1480  -0.0017   0.0236   0.0718
     0.2429   0.2496   0.3147   0.4200   0.4897   0.5237   0.5827   1.4966
     2.1227   2.9933   3.9965   5.0653   6.0093   7.2983   8.8099   9.7091
    10.3245  10.5011

          k = 0.3750-0.1326 0.0000 ( 11406 PWs)   bands (ev):

   -43.5710  -2.2043  -2.0781  -2.0521  -1.9733  -1.9172  -1.8929  -1.7836
    -1.7710  -1.6452  -1.5978  -1.4365  -1.3441  -1.1377  -1.0544  -0.9045
    -0.7948  -0.6996  -0.6524  -0.5761  -0.5103  -0.4138  -0.3052  -0.1827
    -0.1800   0.0026   0.1327   0.2117   0.2490   0.4273   0.5376   1.0703
     1.3975   2.0672   3.0282   4.1844   5.1393   6.4535   8.0159   9.2508
     9.8880  10.0915

          k = 0.3750-0.0000 0.0000 ( 11413 PWs)   bands (ev):

   -43.5745  -2.2708  -2.1938  -2.0930  -2.0323  -1.9087  -1.7746  -1.7589
    -1.6491  -1.6412  -1.5523  -1.5215  -1.4876  -1.3684  -1.3180  -1.0775
    -0.9651  -0.7954  -0.6712  -0.5501  -0.3527  -0.2400  -0.1900  -0.1692
    -0.1092  -0.0202   0.0140   0.2515   0.2999   0.4921   0.5241   1.0168
     1.1299   1.5774   2.5749   3.8590   4.8510   6.1538   7.8058   8.2060
     8.6940   9.2538

          k =-0.5000-0.1768 0.0000 ( 11418 PWs)   bands (ev):

   -43.5734  -2.5851  -2.5360  -2.3672  -2.3624  -2.2055  -2.0254  -1.9660
    -1.9574  -1.8742  -1.8682  -1.7122  -1.5244  -0.9956  -0.7447  -0.5598
    -0.3572  -0.2502  -0.1789  -0.1265  -0.1026  -0.0929  -0.0330   0.0039
     0.0589   0.0953   0.2714   0.3522   0.4418   0.6986   0.7478   2.8759
     3.5081   3.5677   3.6263   3.6504   4.0311   5.7601   5.8570   6.8930
     7.6649   7.9695

          k =-0.5000-0.0442 0.0000 ( 11392 PWs)   bands (ev):

   -43.5718  -2.4262  -2.3559  -2.2286  -2.1614  -2.0223  -1.9115  -1.8619
    -1.8324  -1.7243  -1.7012  -1.5370  -1.4610  -1.2103  -1.0336  -0.7715
    -0.7575  -0.5587  -0.4114  -0.2627  -0.2415  -0.2147  -0.1364  -0.1084
    -0.0543  -0.0052   0.0477   0.3094   0.4836   0.7211   0.7455   3.0452
     3.3370   3.6281   4.1964   4.7411   4.9673   6.0453   6.1246   7.1467
     7.8305   8.2284

          k =-0.5000 0.0884 0.0000 ( 11392 PWs)   bands (ev):

   -43.5683  -2.1983  -2.1052  -2.0416  -2.0305  -1.9948  -1.9084  -1.8324
    -1.7088  -1.6909  -1.5817  -1.4608  -1.3750  -1.2204  -1.0987  -0.9387
    -0.8861  -0.7945  -0.6894  -0.5281  -0.3357  -0.2993  -0.2344  -0.1422
    -0.1160   0.0136   0.1160   0.3202   0.4956   0.6752   0.7031   3.2484
     3.5565   4.1386   4.9710   5.9106   6.7147   6.9521   7.1376   7.9788
     8.5098   8.9214

          k =-0.5000 0.2210 0.0000 ( 11395 PWs)   bands (ev):

   -43.5649  -2.4052  -2.3654  -2.3501  -2.2186  -2.2009  -2.1394  -1.9813
    -1.9137  -1.8604  -1.8013  -1.6854  -1.3903  -1.2587  -0.9676  -0.7457
    -0.6719  -0.3071  -0.2324  -0.1624  -0.1131   0.0603   0.1000   0.1869
     0.2421   0.3516   0.4257   0.5152   0.5763   0.6256   0.6418   3.4333
     3.9445   4.7663   5.7254   6.6798   7.6507   8.2313   8.4930   8.7571
     8.8316   9.0890

          k =-0.5000-0.7071 0.0000 ( 11406 PWs)   bands (ev):

   -43.5636  -2.5355  -2.5324  -2.5181  -2.3837  -2.3182  -2.2903  -2.1719
    -1.9708  -1.9287  -1.9179  -1.6471  -1.3581  -1.1719  -0.8504  -0.7100
    -0.5675  -0.2770  -0.1928  -0.1496  -0.0906   0.0617   0.2434   0.4890
     0.5180   0.5587   0.6698   0.7283   0.8084   0.8836   0.9118   3.5619
     4.2700   5.3251   6.5226   7.2703   7.3758   7.6747   7.6858   8.1481
     8.7369   8.7843

     the Fermi energy is     3.5626 ev

!    total energy              =    -520.55917593 Ry
     estimated scf accuracy    <       0.00000029 Ry
     smearing contrib. (-TS)   =      -0.00201934 Ry
     internal energy E=F+TS    =    -520.55715659 Ry

     The total energy is F=E-TS. E is the sum of the following terms:
     one-electron contribution =   -6335.64715946 Ry
     hartree contribution      =    3218.15302309 Ry
     xc contribution           =    -137.56340947 Ry
     ewald contribution        =    2734.68469862 Ry
     DFT-D3 Dispersion         =      -0.18430937 Ry

     convergence has been achieved in  13 iterations

     negative rho (up, down):  9.048E-06 0.000E+00

     Forces acting on atoms (cartesian axes, Ry/au):

     atom    1 type  2   force =     0.00000039   -0.00000061   -0.09572823
     atom    2 type  2   force =     0.00000047   -0.00000049   -0.00408063
     atom    3 type  2   force =     0.00000018    0.00000007   -0.00384494
     atom    4 type  2   force =     0.00000095    0.00000104    0.00081684
     atom    5 type  2   force =    -0.00000169   -0.00000048    0.00333255
     atom    6 type  2   force =    -0.00000004    0.00000025    0.00354405
     atom    7 type  1   force =    -0.00000026    0.00000021    0.09596037
     The non-local contrib.  to forces
     atom    1 type  2   force =     0.00000077    0.00000062    0.16850626
     atom    2 type  2   force =    -0.00000068   -0.00000098    0.02332049
     atom    3 type  2   force =    -0.00000000    0.00000042   -0.00488344
     atom    4 type  2   force =     0.00000115    0.00000091   -0.00655240
     atom    5 type  2   force =    -0.00000136   -0.00000079   -0.02775480
     atom    6 type  2   force =    -0.00000027    0.00000097   -0.06725145
     atom    7 type  1   force =    -0.00000045   -0.00000010    0.05881937
     The ionic contribution  to forces
     atom    1 type  2   force =    -0.00000782   -0.00001277  139.39908338
     atom    2 type  2   force =     0.00001482    0.00000784   81.43440791
     atom    3 type  2   force =    -0.00000714    0.00000508   21.51567465
     atom    4 type  2   force =     0.00000016   -0.00000011  -37.52735791
     atom    5 type  2   force =    -0.00000000    0.00000000  -96.48944730
     atom    6 type  2   force =    -0.00000000   -0.00000000 -154.71368767
     atom    7 type  1   force =    -0.00000002   -0.00000004   46.38132694
     The local contribution  to forces
     atom    1 type  2   force =     0.00000819    0.00001131 -139.67072964
     atom    2 type  2   force =    -0.00001364   -0.00000667  -81.45910853
     atom    3 type  2   force =     0.00000717   -0.00000449  -21.51602640
     atom    4 type  2   force =    -0.00000039    0.00000034   37.53305508
     atom    5 type  2   force =    -0.00000082    0.00000083   96.51571285
     atom    6 type  2   force =     0.00000054   -0.00000017  154.77730957
     atom    7 type  1   force =     0.00000020   -0.00000036  -46.34275962
     The core correction contribution to forces
     atom    1 type  2   force =     0.00000012    0.00000003    0.01261599
     atom    2 type  2   force =    -0.00000003    0.00000002    0.00009384
     atom    3 type  2   force =    -0.00000000    0.00000005    0.00075595
     atom    4 type  2   force =    -0.00000001    0.00000001   -0.00015368
     atom    5 type  2   force =    -0.00000003    0.00000004   -0.00011893
     atom    6 type  2   force =     0.00000002    0.00000001    0.00476586
     atom    7 type  1   force =     0.00000000    0.00000000    0.00000000
     The Hubbard contrib.    to forces
     atom    1 type  2   force =     0.00000000    0.00000000    0.00000000
     atom    2 type  2   force =     0.00000000    0.00000000    0.00000000
     atom    3 type  2   force =     0.00000000    0.00000000    0.00000000
     atom    4 type  2   force =     0.00000000    0.00000000    0.00000000
     atom    5 type  2   force =     0.00000000    0.00000000    0.00000000
     atom    6 type  2   force =     0.00000000    0.00000000    0.00000000
     atom    7 type  1   force =     0.00000000    0.00000000    0.00000000
     The SCF correction term to forces
     atom    1 type  2   force =    -0.00000118   -0.00000016   -0.00196267
     atom    2 type  2   force =    -0.00000018   -0.00000105   -0.00067849
     atom    3 type  2   force =    -0.00000026   -0.00000123    0.00034080
     atom    4 type  2   force =    -0.00000026   -0.00000043    0.00121583
     atom    5 type  2   force =     0.00000022   -0.00000088    0.00136987
     atom    6 type  2   force =    -0.00000064   -0.00000090    0.00055684
     atom    7 type  1   force =    -0.00000029    0.00000039   -0.00050247

     DFT-D3 dispersion contribution to forces:
     atom    1 type  2   force =     0.00000001    0.00000005   -0.00324783
     atom    2 type  2   force =    -0.00000013    0.00000003   -0.00212213
     atom    3 type  2   force =     0.00000011   -0.00000008    0.00028722
     atom    4 type  2   force =     0.00000000   -0.00000000    0.00060364
     atom    5 type  2   force =     0.00000000   -0.00000000    0.00356458
     atom    6 type  2   force =    -0.00000000    0.00000000    0.00184463
     atom    7 type  1   force =     0.00000000    0.00000000   -0.00093013

     Total force =     0.135750     Total SCF correction =     0.002889


     Computing stress (Cartesian axis) and pressure


     negative rho (up, down):  9.048E-06 0.000E+00
          total   stress  (Ry/bohr**3)                   (kbar)     P=      -12.15
  -0.00016027  -0.00003268  -0.00000000          -23.58       -4.81       -0.00
  -0.00003268  -0.00018339  -0.00000000           -4.81      -26.98       -0.00
  -0.00000000  -0.00000000   0.00009581           -0.00       -0.00       14.09


     BFGS Geometry Optimization
     Energy error            =      0.0E+00 Ry
     Gradient error          =      9.6E-02 Ry/Bohr

     number of scf cycles    =   1
     number of bfgs steps    =   0

     energy             new  =    -520.5591759261 Ry

     new trust radius        =       0.0959603680 bohr
     new conv_thr            =       0.0000010000 Ry


ATOMIC_POSITIONS (angstrom)
Ag           -0.0000324021        2.0277889785       21.5847846350
Ag            1.9117511285        0.6759415589       19.3136196765
Ag            0.0000000939        2.0277537864       17.0223103744
Ag            1.9117850721        0.6759184638       14.6833289400
Ag           -0.0000008919        2.0277534948       12.3432118508
Ag            1.9117845453        0.6759180459       10.0018754316
Li           -0.0000327474        2.0277894123       23.6862218749



     Writing config-only to output data dir ./Ag_mp-2646971_110_ontop_0/Ag_mp-2646971_110_ontop_0.save/
     NEW-OLD atomic charge density approx. for the potential

     negative rho (up, down):  1.151E-05 0.000E+00

     total cpu time spent up to now is       14.5 secs

     per-process dynamical memory:   182.1 Mb

     Self-consistent Calculation

     iteration #  1     ecut=    55.00 Ry     beta= 0.30
     Davidson diagonalization with overlap
     ethr =  1.00E-06,  avg # of iterations =  8.5

     negative rho (up, down):  1.026E-05 0.000E+00

     total cpu time spent up to now is       15.4 secs

     total energy              =    -520.57362141 Ry
     estimated scf accuracy    <       0.00155317 Ry

     iteration #  2     ecut=    55.00 Ry     beta= 0.30
     Davidson diagonalization with overlap
     ethr =  2.25E-06,  avg # of iterations =  7.8

     negative rho (up, down):  1.045E-05 0.000E+00

     total cpu time spent up to now is       16.1 secs

     total energy              =    -520.57109852 Ry
     estimated scf accuracy    <       0.15334172 Ry

     iteration #  3     ecut=    55.00 Ry     beta= 0.30
     Davidson diagonalization with overlap
     ethr =  2.25E-06,  avg # of iterations =  9.3

     negative rho (up, down):  1.120E-05 0.000E+00

     total cpu time spent up to now is       16.6 secs

     total energy              =    -520.57358878 Ry
     estimated scf accuracy    <       0.01037533 Ry

     iteration #  4     ecut=    55.00 Ry     beta= 0.30
     Davidson diagonalization with overlap
     ethr =  2.25E-06,  avg # of iterations =  4.4

     negative rho (up, down):  1.033E-05 0.000E+00

     total cpu time spent up to now is       17.0 secs

     total energy              =    -520.57393061 Ry
     estimated scf accuracy    <       0.00470712 Ry

     iteration #  5     ecut=    55.00 Ry     beta= 0.30
     Davidson diagonalization with overlap
     ethr =  2.25E-06,  avg # of iterations =  1.7

     negative rho (up, down):  9.918E-06 0.000E+00

     total cpu time spent up to now is       17.2 secs

     total energy              =    -520.57406564 Ry
     estimated scf accuracy    <       0.00010795 Ry

     iteration #  6     ecut=    55.00 Ry     beta= 0.30
     Davidson diagonalization with overlap
     ethr =  1.56E-07,  avg # of iterations =  1.6

     negative rho (up, down):  9.545E-06 0.000E+00

     total cpu time spent up to now is       17.5 secs

     total energy              =    -520.57407626 Ry
     estimated scf accuracy    <       0.00003084 Ry

     iteration #  7     ecut=    55.00 Ry     beta= 0.30
     Davidson diagonalization with overlap
     ethr =  4.47E-08,  avg # of iterations =  1.6

     negative rho (up, down):  8.998E-06 0.000E+00

     total cpu time spent up to now is       17.8 secs

     total energy              =    -520.57407940 Ry
     estimated scf accuracy    <       0.00001429 Ry

     iteration #  8     ecut=    55.00 Ry     beta= 0.30
     Davidson diagonalization with overlap
     ethr =  2.07E-08,  avg # of iterations =  1.4

     negative rho (up, down):  8.803E-06 0.000E+00

     total cpu time spent up to now is       18.1 secs

     total energy              =    -520.57408103 Ry
     estimated scf accuracy    <       0.00000267 Ry

     iteration #  9     ecut=    55.00 Ry     beta= 0.30
     Davidson diagonalization with overlap
     ethr =  3.86E-09,  avg # of iterations =  2.1

     negative rho (up, down):  8.723E-06 0.000E+00

     total cpu time spent up to now is       18.4 secs

     End of self-consistent calculation

          k = 0.0000 0.0000 0.0000 ( 11533 PWs)   bands (ev):

   -43.5621  -3.8080  -3.3551  -2.7252  -2.6382  -2.5183  -2.3217  -1.9827
    -1.8843  -1.7186  -1.5237  -1.4375  -1.3672  -1.2725  -1.2670  -1.2275
    -1.0732  -1.0022  -0.5677  -0.4700  -0.4006  -0.2884  -0.2142  -0.1915
    -0.1141  -0.0879  -0.0611  -0.0505  -0.0358  -0.0252   0.0077   0.0561
     0.1566   0.4422   0.7789   0.8727   2.0463   3.2202   3.8093   6.8346
     7.4004   7.8017

          k = 0.0000 0.1326 0.0000 ( 11489 PWs)   bands (ev):

   -43.5600  -3.4566  -3.0304  -2.4707  -2.4108  -2.3089  -2.0950  -1.9084
    -1.8104  -1.6458  -1.5470  -1.4403  -1.3773  -1.3234  -1.2812  -1.2409
    -1.0869  -0.8946  -0.8273  -0.5609  -0.4295  -0.3585  -0.3174  -0.2401
    -0.2108  -0.1666  -0.1412  -0.0967  -0.0416   0.0106   0.0161   0.0846
     0.1706   0.4242   0.5981   1.5917   2.6278   3.6948   4.5415   7.1248
     7.7077   8.0636

          k = 0.0000 0.2652 0.0000 ( 11469 PWs)   bands (ev):

   -43.5549  -2.6455  -2.4700  -2.2428  -2.1836  -2.0838  -1.9499  -1.8580
    -1.6985  -1.6335  -1.5891  -1.5344  -1.4342  -1.2899  -0.9988  -0.9166
    -0.8727  -0.7612  -0.5754  -0.5210  -0.4084  -0.3193  -0.3132  -0.2505
    -0.2270  -0.1963  -0.1079  -0.0491   0.0227   0.0447   0.1052   0.1721
     0.2081   0.3783   1.4205   2.6949   3.6707   4.8778   6.2151   7.9347
     8.6140   8.8575

          k = 0.0000 0.3977 0.0000 ( 11401 PWs)   bands (ev):

   -43.5496  -2.5004  -2.4554  -2.3019  -2.2852  -2.1500  -1.9867  -1.9324
    -1.8918  -1.8178  -1.7658  -1.6178  -1.4700  -1.0751  -0.9391  -0.5429
    -0.5165  -0.3627  -0.2538  -0.1961  -0.1483  -0.1015  -0.0612  -0.0260
     0.0025   0.0593   0.1308   0.2473   0.2817   0.4137   0.4675   1.0378
     1.1458   1.5618   2.7020   4.0215   5.0175   6.1852   7.0717   7.5802
     7.9732   8.4622

          k = 0.0000-0.5303 0.0000 ( 11418 PWs)   bands (ev):

   -43.5476  -2.5976  -2.5594  -2.3685  -2.3666  -2.1862  -2.0239  -1.9807
    -1.9694  -1.8855  -1.8687  -1.7164  -1.5341  -0.9634  -0.7251  -0.4908
    -0.3555  -0.2613  -0.1929  -0.1419  -0.1157  -0.1100  -0.0420  -0.0046
     0.0457   0.1227   0.2586   0.3473   0.4324   0.6936   0.7374   2.9282
     3.4909   3.5523   3.6118   3.6343   4.0201   5.6989   5.7009   6.8832
     7.6566   7.9445

          k = 0.1250 0.0442 0.0000 ( 11489 PWs)   bands (ev):

   -43.5600  -3.4566  -3.0304  -2.4707  -2.4108  -2.3089  -2.0950  -1.9084
    -1.8104  -1.6458  -1.5470  -1.4403  -1.3773  -1.3234  -1.2812  -1.2409
    -1.0869  -0.8946  -0.8273  -0.5609  -0.4295  -0.3585  -0.3174  -0.2401
    -0.2108  -0.1666  -0.1412  -0.0967  -0.0416   0.0106   0.0161   0.0846
     0.1706   0.4242   0.5981   1.5917   2.6278   3.6948   4.5415   7.1247
     7.7077   8.0636

          k = 0.1250 0.1768 0.0000 ( 11509 PWs)   bands (ev):

   -43.5575  -2.9178  -2.5623  -2.1618  -2.0045  -1.9884  -1.9502  -1.8645
    -1.7984  -1.7323  -1.5810  -1.5507  -1.5194  -1.3690  -1.3662  -1.2315
    -1.2298  -0.9339  -0.8306  -0.5826  -0.5157  -0.3642  -0.3401  -0.1979
    -0.1879  -0.0794  -0.0436  -0.0317  -0.0149   0.0524   0.0671   0.0799
     0.1187   0.3461   1.2396   2.3750   3.3083   4.4372   5.5889   7.5966
     8.2143   8.5047

          k = 0.1250 0.3094 0.0000 ( 11436 PWs)   bands (ev):

   -43.5522  -2.2616  -2.1766  -2.0759  -2.0400  -1.9471  -1.8955  -1.8471
    -1.7407  -1.6916  -1.5495  -1.4610  -1.3563  -1.1713  -1.0194  -0.9607
    -0.8578  -0.8280  -0.7590  -0.5940  -0.4940  -0.4385  -0.2878  -0.2429
    -0.0997  -0.0412   0.0081   0.0309   0.0727   0.0816   0.0888   0.4586
     0.5824   1.2278   2.3183   3.5364   4.4432   5.7468   7.2944   8.4822
     9.2686   9.3782

          k = 0.1250 0.4419 0.0000 ( 11400 PWs)   bands (ev):

   -43.5475  -2.3849  -2.3334  -2.1653  -2.1365  -2.0403  -1.9268  -1.9087
    -1.8085  -1.7702  -1.7182  -1.5381  -1.4037  -1.0738  -0.9448  -0.7148
    -0.6379  -0.5328  -0.3737  -0.2950  -0.2720  -0.1276  -0.0878  -0.0631
     0.0006   0.0303   0.0681   0.0997   0.2138   0.4166   0.4407   2.0042
     2.2365   2.8618   3.8340   4.9215   5.7872   6.2407   6.5522   7.3851
     7.8982   8.3075

          k = 0.1250-0.4861 0.0000 ( 11392 PWs)   bands (ev):

   -43.5461  -2.4294  -2.3851  -2.2292  -2.1791  -1.9961  -1.9041  -1.8761
    -1.8508  -1.7290  -1.7138  -1.5459  -1.4705  -1.2075  -1.0278  -0.7586
    -0.7164  -0.5281  -0.3985  -0.2760  -0.2525  -0.2155  -0.1455  -0.1154
    -0.0658  -0.0128   0.0382   0.3198   0.4762   0.7131   0.7363   3.0753
     3.3257   3.6207   4.1820   4.7234   4.9546   5.9377   6.0603   7.1355
     7.8222   8.2001

          k = 0.1250-0.3536 0.0000 ( 11413 PWs)   bands (ev):

   -43.5487  -2.2805  -2.2226  -2.1005  -2.0521  -1.8771  -1.7857  -1.7445
    -1.6777  -1.6525  -1.5748  -1.5359  -1.4912  -1.3648  -1.3254  -1.0743
    -0.9580  -0.7750  -0.6213  -0.5455  -0.3471  -0.2505  -0.1936  -0.1764
    -0.1149  -0.0199   0.0106   0.2488   0.2996   0.4822   0.5152   1.0146
     1.1216   1.5772   2.5700   3.8201   4.8114   6.1264   7.7708   8.2064
     8.6699   9.2386

          k = 0.1250-0.2210 0.0000 ( 11482 PWs)   bands (ev):

   -43.5539  -2.6744  -2.3660  -2.0761  -2.0017  -1.9144  -1.7473  -1.6737
    -1.5412  -1.4874  -1.4288  -1.3811  -1.3667  -1.3275  -1.2132  -1.0949
    -1.0786  -1.0064  -0.8176  -0.7521  -0.6277  -0.5301  -0.4836  -0.3624
    -0.3489  -0.3197  -0.2782  -0.1875  -0.1205   0.0319   0.1266   0.3029
     0.4679   0.5480   1.2972   2.4971   3.4993   4.6987   5.9348   7.8794
     8.5165   8.7906

          k = 0.1250-0.0884 0.0000 ( 11507 PWs)   bands (ev):

   -43.5586  -3.3404  -2.9027  -2.3996  -2.3009  -2.2350  -1.9843  -1.6900
    -1.5945  -1.4513  -1.3861  -1.3724  -1.2677  -1.1995  -1.1659  -1.0842
    -1.0454  -0.9736  -0.9143  -0.8644  -0.7124  -0.6284  -0.6277  -0.4834
    -0.4355  -0.3144  -0.2745  -0.2066  -0.1084  -0.0380   0.0586   0.2063
     0.3954   0.6130   0.7428   1.6237   2.6769   3.7993   4.6733   7.2252
     7.8103   8.1575

          k = 0.2500 0.0884 0.0000 ( 11469 PWs)   bands (ev):

   -43.5549  -2.6455  -2.4700  -2.2428  -2.1836  -2.0838  -1.9499  -1.8580
    -1.6985  -1.6335  -1.5891  -1.5344  -1.4342  -1.2899  -0.9988  -0.9166
    -0.8727  -0.7612  -0.5754  -0.5210  -0.4084  -0.3193  -0.3132  -0.2505
    -0.2270  -0.1963  -0.1079  -0.0491   0.0227   0.0447   0.1052   0.1721
     0.2081   0.3783   1.4205   2.6949   3.6707   4.8778   6.2151   7.9347
     8.6140   8.8576

          k = 0.2500 0.2210 0.0000 ( 11436 PWs)   bands (ev):

   -43.5522  -2.2616  -2.1766  -2.0759  -2.0400  -1.9471  -1.8955  -1.8471
    -1.7407  -1.6916  -1.5495  -1.4610  -1.3563  -1.1713  -1.0194  -0.9607
    -0.8578  -0.8280  -0.7590  -0.5940  -0.4940  -0.4385  -0.2878  -0.2429
    -0.0997  -0.0412   0.0081   0.0309   0.0727   0.0816   0.0888   0.4586
     0.5824   1.2278   2.3183   3.5364   4.4432   5.7468   7.2944   8.4822
     9.2686   9.3783

          k = 0.2500 0.3536 0.0000 ( 11393 PWs)   bands (ev):

   -43.5475  -2.1115  -2.0582  -1.9072  -1.8671  -1.7369  -1.6745  -1.6035
    -1.5513  -1.5364  -1.5318  -1.4169  -1.3153  -1.2355  -1.1552  -1.0113
    -0.9514  -0.9065  -0.8557  -0.6837  -0.6213  -0.4416  -0.3897  -0.1614
    -0.1137  -0.0034   0.0663   0.0808   0.0863   0.1614   0.1831   1.6193
     1.9868   2.7581   3.8119   4.8984   5.8207   7.1972   8.3747   8.8798
     9.1669   9.4569

          k = 0.2500 0.4861 0.0000 ( 11399 PWs)   bands (ev):

   -43.5436  -2.1551  -2.0956  -2.0032  -1.9711  -1.8898  -1.7735  -1.7298
    -1.6373  -1.5768  -1.5387  -1.4372  -1.3385  -1.1922  -1.0721  -0.9945
    -0.9197  -0.8980  -0.7030  -0.5464  -0.4518  -0.3290  -0.2505  -0.1377
    -0.0190   0.0441   0.0839   0.1836   0.2630   0.4485   0.4656   3.7047
     4.1029   4.8020   5.5992   6.0921   6.3773   6.7574   6.9267   7.7823
     8.0153   8.8107

          k = 0.2500-0.4419 0.0000 ( 11392 PWs)   bands (ev):

   -43.5426  -2.1826  -2.1419  -2.0617  -2.0495  -2.0119  -1.9268  -1.8386
    -1.7239  -1.6956  -1.5794  -1.4647  -1.3692  -1.2073  -1.0640  -0.9412
    -0.8651  -0.7890  -0.6659  -0.5389  -0.3315  -0.2924  -0.2425  -0.1422
    -0.1194   0.0082   0.1248   0.3209   0.4884   0.6647   0.6945   3.2558
     3.5555   4.1357   4.9475   5.8657   6.7001   6.9073   7.1234   7.9661
     8.4816   8.8920

          k = 0.2500-0.3094 0.0000 ( 11406 PWs)   bands (ev):

   -43.5452  -2.2282  -2.0927  -2.0712  -1.9915  -1.9248  -1.9066  -1.8052
    -1.7773  -1.6479  -1.5955  -1.4472  -1.3537  -1.1000  -0.9888  -0.9118
    -0.7898  -0.7097  -0.6453  -0.5828  -0.5003  -0.4213  -0.3118  -0.1825
    -0.1708   0.0092   0.1267   0.2025   0.2452   0.4236   0.5295   1.0646
     1.3951   2.0724   3.0265   4.1431   5.1059   6.4288   7.9834   9.2347
     9.9081  10.0943

          k = 0.2500-0.1768 0.0000 ( 11422 PWs)   bands (ev):

   -43.5498  -2.4569  -2.1403  -2.0707  -1.8926  -1.7722  -1.6359  -1.6339
    -1.6251  -1.5459  -1.4115  -1.3620  -1.1689  -1.0299  -0.9761  -0.9712
    -0.8583  -0.8162  -0.7373  -0.7235  -0.6496  -0.6005  -0.4493  -0.4429
    -0.3616  -0.3504  -0.3281  -0.2931  -0.1925  -0.1373   0.2902   0.3554
     0.6564   0.9364   1.8229   2.9907   3.9665   5.2272   6.5718   8.3534
     9.0042   9.2765

          k = 0.2500-0.0442 0.0000 ( 11482 PWs)   bands (ev):

   -43.5539  -2.6744  -2.3660  -2.0761  -2.0017  -1.9144  -1.7473  -1.6737
    -1.5412  -1.4874  -1.4288  -1.3811  -1.3667  -1.3275  -1.2132  -1.0949
    -1.0786  -1.0064  -0.8176  -0.7521  -0.6277  -0.5301  -0.4836  -0.3624
    -0.3489  -0.3197  -0.2782  -0.1875  -0.1205   0.0319   0.1266   0.3029
     0.4679   0.5480   1.2972   2.4971   3.4993   4.6987   5.9348   7.8794
     8.5165   8.7906

          k = 0.3750 0.1326 0.0000 ( 11401 PWs)   bands (ev):

   -43.5496  -2.5004  -2.4554  -2.3019  -2.2852  -2.1500  -1.9867  -1.9324
    -1.8918  -1.8178  -1.7658  -1.6178  -1.4700  -1.0751  -0.9391  -0.5429
    -0.5165  -0.3627  -0.2538  -0.1961  -0.1483  -0.1015  -0.0612  -0.0260
     0.0025   0.0593   0.1308   0.2473   0.2817   0.4137   0.4675   1.0378
     1.1458   1.5618   2.7020   4.0215   5.0175   6.1852   7.0717   7.5802
     7.9732   8.4622

          k = 0.3750 0.2652 0.0000 ( 11400 PWs)   bands (ev):

   -43.5475  -2.3849  -2.3334  -2.1653  -2.1365  -2.0403  -1.9268  -1.9087
    -1.8085  -1.7702  -1.7182  -1.5381  -1.4037  -1.0738  -0.9448  -0.7148
    -0.6379  -0.5328  -0.3737  -0.2950  -0.2720  -0.1276  -0.0878  -0.0631
     0.0006   0.0303   0.0681   0.0997   0.2138   0.4166   0.4407   2.0042
     2.2365   2.8618   3.8340   4.9215   5.7872   6.2407   6.5522   7.3851
     7.8982   8.3075

          k = 0.3750 0.3977 0.0000 ( 11399 PWs)   bands (ev):

   -43.5436  -2.1551  -2.0956  -2.0032  -1.9711  -1.8898  -1.7735  -1.7298
    -1.6373  -1.5768  -1.5387  -1.4372  -1.3385  -1.1922  -1.0721  -0.9945
    -0.9197  -0.8980  -0.7030  -0.5464  -0.4518  -0.3290  -0.2505  -0.1377
    -0.0190   0.0441   0.0839   0.1836   0.2630   0.4485   0.4656   3.7047
     4.1029   4.8020   5.5992   6.0921   6.3773   6.7574   6.9267   7.7823
     8.0153   8.8107

          k = 0.3750 0.5303 0.0000 ( 11360 PWs)   bands (ev):

   -43.5400  -2.2259  -2.1538  -2.1156  -2.0645  -2.0497  -1.9612  -1.8550
    -1.8150  -1.7457  -1.6628  -1.5407  -1.4782  -1.3366  -1.1931  -0.8753
    -0.8102  -0.4948  -0.4623  -0.2146  -0.1570  -0.0107   0.0502   0.0895
     0.1002   0.1930   0.2112   0.2165   0.2547   0.4316   0.4753   5.4302
     5.9494   6.0865   6.4218   6.8802   7.1105   7.5492   7.6627   7.9117
     8.0490   8.3326

          k = 0.3750-0.3977 0.0000 ( 11395 PWs)   bands (ev):

   -43.5392  -2.4171  -2.3936  -2.3764  -2.2248  -2.2059  -2.1636  -1.9769
    -1.9411  -1.8522  -1.8127  -1.6968  -1.3888  -1.2288  -0.9106  -0.7416
    -0.6277  -0.2899  -0.2336  -0.1717  -0.1219   0.0571   0.1025   0.2064
     0.2398   0.3408   0.4282   0.4995   0.5616   0.6141   0.6319   3.4376
     3.9507   4.7687   5.6954   6.6265   7.6154   8.2429   8.4849   8.7463
     8.7858   9.0769

          k = 0.3750-0.2652 0.0000 ( 11394 PWs)   bands (ev):

   -43.5413  -2.4447  -2.3684  -2.3302  -2.2142  -2.1596  -2.1348  -1.9622
    -1.8666  -1.8271  -1.7673  -1.5734  -1.3334  -1.0864  -0.8875  -0.7141
    -0.5042  -0.3728  -0.2949  -0.1873  -0.1559   0.0152   0.0208   0.0801
     0.2316   0.2383   0.3210   0.4051   0.4802   0.5094   0.5790   1.4886
     2.1237   3.0040   3.9924   5.0159   5.9759   7.2743   8.7789   9.6805
    10.3028  10.4886

          k = 0.3750-0.1326 0.0000 ( 11406 PWs)   bands (ev):

   -43.5452  -2.2282  -2.0927  -2.0712  -1.9915  -1.9248  -1.9066  -1.8052
    -1.7773  -1.6479  -1.5955  -1.4472  -1.3537  -1.1000  -0.9888  -0.9118
    -0.7898  -0.7097  -0.6453  -0.5828  -0.5003  -0.4213  -0.3118  -0.1825
    -0.1708   0.0092   0.1267   0.2025   0.2452   0.4236   0.5295   1.0646
     1.3951   2.0724   3.0265   4.1431   5.1059   6.4288   7.9834   9.2347
     9.9081  10.0943

          k = 0.3750-0.0000 0.0000 ( 11413 PWs)   bands (ev):

   -43.5487  -2.2805  -2.2226  -2.1005  -2.0521  -1.8771  -1.7857  -1.7445
    -1.6777  -1.6525  -1.5748  -1.5359  -1.4912  -1.3648  -1.3254  -1.0743
    -0.9580  -0.7750  -0.6213  -0.5455  -0.3471  -0.2505  -0.1936  -0.1764
    -0.1149  -0.0199   0.0106   0.2488   0.2996   0.4822   0.5152   1.0146
     1.1216   1.5772   2.5700   3.8201   4.8114   6.1265   7.7708   8.2064
     8.6697   9.2385

          k =-0.5000-0.1768 0.0000 ( 11418 PWs)   bands (ev):

   -43.5476  -2.5976  -2.5594  -2.3685  -2.3666  -2.1862  -2.0239  -1.9807
    -1.9694  -1.8855  -1.8687  -1.7164  -1.5341  -0.9634  -0.7251  -0.4908
    -0.3555  -0.2613  -0.1929  -0.1419  -0.1157  -0.1100  -0.0420  -0.0046
     0.0457   0.1227   0.2586   0.3473   0.4324   0.6936   0.7374   2.9282
     3.4909   3.5523   3.6118   3.6343   4.0201   5.6989   5.7009   6.8832
     7.6566   7.9445

          k =-0.5000-0.0442 0.0000 ( 11392 PWs)   bands (ev):

   -43.5461  -2.4294  -2.3851  -2.2292  -2.1791  -1.9961  -1.9041  -1.8761
    -1.8508  -1.7290  -1.7138  -1.5459  -1.4705  -1.2075  -1.0278  -0.7586
    -0.7164  -0.5281  -0.3985  -0.2760  -0.2525  -0.2155  -0.1455  -0.1154
    -0.0658  -0.0128   0.0382   0.3198   0.4762   0.7131   0.7363   3.0753
     3.3257   3.6207   4.1820   4.7234   4.9546   5.9377   6.0603   7.1355
     7.8222   8.2001

          k =-0.5000 0.0884 0.0000 ( 11392 PWs)   bands (ev):

   -43.5426  -2.1826  -2.1419  -2.0617  -2.0495  -2.0119  -1.9268  -1.8386
    -1.7239  -1.6956  -1.5794  -1.4647  -1.3692  -1.2073  -1.0640  -0.9412
    -0.8651  -0.7890  -0.6659  -0.5389  -0.3315  -0.2924  -0.2425  -0.1422
    -0.1194   0.0082   0.1248   0.3209   0.4884   0.6647   0.6945   3.2558
     3.5555   4.1357   4.9475   5.8657   6.7001   6.9073   7.1234   7.9661
     8.4816   8.8921

          k =-0.5000 0.2210 0.0000 ( 11395 PWs)   bands (ev):

   -43.5392  -2.4171  -2.3936  -2.3764  -2.2248  -2.2059  -2.1636  -1.9769
    -1.9411  -1.8522  -1.8127  -1.6968  -1.3888  -1.2288  -0.9106  -0.7416
    -0.6277  -0.2899  -0.2336  -0.1717  -0.1219   0.0571   0.1025   0.2064
     0.2398   0.3408   0.4282   0.4995   0.5616   0.6141   0.6319   3.4376
     3.9507   4.7687   5.6954   6.6265   7.6154   8.2429   8.4849   8.7463
     8.7858   9.0769

          k =-0.5000-0.7071 0.0000 ( 11406 PWs)   bands (ev):

   -43.5378  -2.5652  -2.5457  -2.5436  -2.3886  -2.3214  -2.3158  -2.1675
    -1.9826  -1.9609  -1.9036  -1.6604  -1.3423  -1.1559  -0.7498  -0.7037
    -0.5436  -0.2880  -0.1994  -0.1537  -0.0993   0.0727   0.2364   0.5175
     0.5311   0.5481   0.6562   0.7136   0.7919   0.8677   0.9006   3.5688
     4.2839   5.3289   6.4705   7.2604   7.3654   7.6163   7.6522   8.1090
     8.7181   8.7751

     the Fermi energy is     3.5466 ev

!    total energy              =    -520.57408110 Ry
     estimated scf accuracy    <       0.00000020 Ry
     smearing contrib. (-TS)   =      -0.00210959 Ry
     internal energy E=F+TS    =    -520.57197151 Ry

     The total energy is F=E-TS. E is the sum of the following terms:
     one-electron contribution =   -6356.28684765 Ry
     hartree contribution      =    3228.48187545 Ry
     xc contribution           =    -137.55186065 Ry
     ewald contribution        =    2744.96942739 Ry
     DFT-D3 Dispersion         =      -0.18456605 Ry

     convergence has been achieved in   9 iterations

     negative rho (up, down):  8.723E-06 0.000E+00

     Forces acting on atoms (cartesian axes, Ry/au):

     atom    1 type  2   force =    -0.00000037    0.00000120   -0.05786760
     atom    2 type  2   force =     0.00000167   -0.00000004   -0.00909767
     atom    3 type  2   force =    -0.00000050   -0.00000024   -0.00375471
     atom    4 type  2   force =    -0.00000013   -0.00000027    0.00068912
     atom    5 type  2   force =     0.00000019    0.00000008    0.00320683
     atom    6 type  2   force =     0.00000017   -0.00000033    0.00323777
     atom    7 type  1   force =    -0.00000103   -0.00000040    0.06358626
     The non-local contrib.  to forces
     atom    1 type  2   force =    -0.00000074    0.00000107    0.13091799
     atom    2 type  2   force =     0.00000265   -0.00000051    0.01692549
     atom    3 type  2   force =    -0.00000025    0.00000068   -0.00448608
     atom    4 type  2   force =     0.00000087    0.00000044   -0.00680546
     atom    5 type  2   force =     0.00000054    0.00000023   -0.02759140
     atom    6 type  2   force =     0.00000102    0.00000038   -0.06722571
     atom    7 type  1   force =    -0.00000020    0.00000018    0.05384905
     The ionic contribution  to forces
     atom    1 type  2   force =    -0.00000847   -0.00001441  140.45045570
     atom    2 type  2   force =     0.00001576    0.00000943   81.43939002
     atom    3 type  2   force =    -0.00000666    0.00000558   21.42758174
     atom    4 type  2   force =    -0.00000168   -0.00000246  -37.66285452
     atom    5 type  2   force =     0.00000204    0.00000249  -96.65376746
     atom    6 type  2   force =    -0.00000075   -0.00000088 -154.88220449
     atom    7 type  1   force =    -0.00000024    0.00000027   45.88139901
     The local contribution  to forces
     atom    1 type  2   force =     0.00000795    0.00001309 -140.64344903
     atom    2 type  2   force =    -0.00001666   -0.00000956  -81.46422283
     atom    3 type  2   force =     0.00000640   -0.00000612  -21.42913616
     atom    4 type  2   force =     0.00000110    0.00000248   37.66916442
     atom    5 type  2   force =    -0.00000189   -0.00000215   96.68016232
     atom    6 type  2   force =     0.00000038    0.00000063  154.94622804
     atom    7 type  1   force =     0.00000014   -0.00000043  -45.87070752
     The core correction contribution to forces
     atom    1 type  2   force =    -0.00000001   -0.00000003    0.00835008
     atom    2 type  2   force =    -0.00000013   -0.00000014    0.00077906
     atom    3 type  2   force =    -0.00000003   -0.00000005    0.00074093
     atom    4 type  2   force =    -0.00000003    0.00000003   -0.00013010
     atom    5 type  2   force =     0.00000001    0.00000001   -0.00009893
     atom    6 type  2   force =    -0.00000003    0.00000002    0.00477292
     atom    7 type  1   force =     0.00000000    0.00000000    0.00000000
     The Hubbard contrib.    to forces
     atom    1 type  2   force =     0.00000000    0.00000000    0.00000000
     atom    2 type  2   force =     0.00000000    0.00000000    0.00000000
     atom    3 type  2   force =     0.00000000    0.00000000    0.00000000
     atom    4 type  2   force =     0.00000000    0.00000000    0.00000000
     atom    5 type  2   force =     0.00000000    0.00000000    0.00000000
     atom    6 type  2   force =     0.00000000    0.00000000    0.00000000
     atom    7 type  1   force =     0.00000000    0.00000000    0.00000000
     The SCF correction term to forces
     atom    1 type  2   force =     0.00000166    0.00000191   -0.00063316
     atom    2 type  2   force =     0.00000093    0.00000119    0.00002253
     atom    3 type  2   force =     0.00000069    0.00000022    0.00119322
     atom    4 type  2   force =     0.00000036   -0.00000028    0.00071572
     atom    5 type  2   force =     0.00000024   -0.00000002    0.00094828
     atom    6 type  2   force =     0.00000030   -0.00000000   -0.00015515
     atom    7 type  1   force =     0.00000003    0.00000006    0.00006985

     DFT-D3 dispersion contribution to forces:
     atom    1 type  2   force =     0.00000001    0.00000005   -0.00348084
     atom    2 type  2   force =    -0.00000013    0.00000003   -0.00196361
     atom    3 type  2   force =     0.00000011   -0.00000008    0.00037997
     atom    4 type  2   force =     0.00000001    0.00000001    0.00062741
     atom    5 type  2   force =    -0.00000001   -0.00000001    0.00358236
     atom    6 type  2   force =     0.00000000    0.00000000    0.00185050
     atom    7 type  1   force =     0.00000000   -0.00000000   -0.00099579

     Total force =     0.086660     Total SCF correction =     0.001807


     Computing stress (Cartesian axis) and pressure


     negative rho (up, down):  8.723E-06 0.000E+00
          total   stress  (Ry/bohr**3)                   (kbar)     P=      -13.30
  -0.00015113  -0.00002801  -0.00000000          -22.23       -4.12       -0.00
  -0.00002801  -0.00017094  -0.00000000           -4.12      -25.15       -0.00
  -0.00000000  -0.00000000   0.00005082           -0.00       -0.00        7.48

     Energy error            =      1.5E-02 Ry
     Gradient error          =      6.4E-02 Ry/Bohr

     number of scf cycles    =   2
     number of bfgs steps    =   1

     energy             old  =    -520.5591759261 Ry
     energy             new  =    -520.5740810979 Ry

     CASE: energy            _new < energy            _old

     new trust radius        =       0.1055564048 bohr
     new conv_thr            =       0.0000006359 Ry


ATOMIC_POSITIONS (angstrom)
Ag           -0.0000327229        2.0277900173       21.5338832177
Ag            1.9117525770        0.6759415202       19.3057046961
Ag           -0.0000003366        2.0277535763       17.0190265360
Ag            1.9117849702        0.6759182343       14.6839325289
Ag           -0.0000007386        2.0277535587       12.3460169059
Ag            1.9117846901        0.6759177622       10.0047089798
Li           -0.0000336408        2.0277890717       23.7420799188



     Writing config-only to output data dir ./Ag_mp-2646971_110_ontop_0/Ag_mp-2646971_110_ontop_0.save/
     NEW-OLD atomic charge density approx. for the potential

     negative rho (up, down):  1.200E-05 0.000E+00

     total cpu time spent up to now is       19.6 secs

     per-process dynamical memory:   207.9 Mb

     Self-consistent Calculation

     iteration #  1     ecut=    55.00 Ry     beta= 0.30
     Davidson diagonalization with overlap
     ethr =  1.00E-06,  avg # of iterations =  9.1

     negative rho (up, down):  1.070E-05 0.000E+00

     total cpu time spent up to now is       20.6 secs

     total energy              =    -520.58346012 Ry
     estimated scf accuracy    <       0.00114772 Ry

     iteration #  2     ecut=    55.00 Ry     beta= 0.30
     Davidson diagonalization with overlap
     ethr =  1.66E-06,  avg # of iterations =  2.9

     negative rho (up, down):  1.280E-05 0.000E+00

     total cpu time spent up to now is       20.9 secs

     total energy              =    -520.58295726 Ry
     estimated scf accuracy    <       0.01470039 Ry

     iteration #  3     ecut=    55.00 Ry     beta= 0.30
     Davidson diagonalization with overlap
     ethr =  1.66E-06,  avg # of iterations =  4.6

     negative rho (up, down):  1.419E-05 0.000E+00

     total cpu time spent up to now is       21.3 secs

     total energy              =    -520.58314672 Ry
     estimated scf accuracy    <       0.02165045 Ry

     iteration #  4     ecut=    55.00 Ry     beta= 0.30
     Davidson diagonalization with overlap
     ethr =  1.66E-06,  avg # of iterations =  4.7

     negative rho (up, down):  1.453E-05 0.000E+00

     total cpu time spent up to now is       21.7 secs

     total energy              =    -520.58329468 Ry
     estimated scf accuracy    <       0.01264273 Ry

     iteration #  5     ecut=    55.00 Ry     beta= 0.30
     Davidson diagonalization with overlap
     ethr =  1.66E-06,  avg # of iterations =  2.4

     negative rho (up, down):  1.297E-05 0.000E+00

     total cpu time spent up to now is       22.0 secs

     total energy              =    -520.58366343 Ry
     estimated scf accuracy    <       0.00013505 Ry

     iteration #  6     ecut=    55.00 Ry     beta= 0.30
     Davidson diagonalization with overlap
     ethr =  1.96E-07,  avg # of iterations =  1.8

     negative rho (up, down):  1.095E-05 0.000E+00

     total cpu time spent up to now is       22.3 secs

     total energy              =    -520.58367646 Ry
     estimated scf accuracy    <       0.00001589 Ry

     iteration #  7     ecut=    55.00 Ry     beta= 0.30
     Davidson diagonalization with overlap
     ethr =  2.30E-08,  avg # of iterations =  2.5

     negative rho (up, down):  9.863E-06 0.000E+00

     total cpu time spent up to now is       22.6 secs

     total energy              =    -520.58367705 Ry
     estimated scf accuracy    <       0.00001529 Ry

     iteration #  8     ecut=    55.00 Ry     beta= 0.30
     Davidson diagonalization with overlap
     ethr =  2.22E-08,  avg # of iterations =  1.3

     negative rho (up, down):  9.156E-06 0.000E+00

     total cpu time spent up to now is       22.9 secs

     total energy              =    -520.58367903 Ry
     estimated scf accuracy    <       0.00000518 Ry

     iteration #  9     ecut=    55.00 Ry     beta= 0.30
     Davidson diagonalization with overlap
     ethr =  7.51E-09,  avg # of iterations =  1.6

     negative rho (up, down):  9.016E-06 0.000E+00

     total cpu time spent up to now is       23.2 secs

     End of self-consistent calculation

          k = 0.0000 0.0000 0.0000 ( 11533 PWs)   bands (ev):

   -43.5654  -3.8393  -3.3799  -2.7200  -2.6639  -2.5235  -2.3293  -1.9995
    -1.8923  -1.7154  -1.5217  -1.4005  -1.3722  -1.3097  -1.2741  -1.2388
    -1.0805  -1.0155  -0.5583  -0.4541  -0.3178  -0.2668  -0.2226  -0.2063
    -0.1272  -0.0946  -0.0720  -0.0526  -0.0437  -0.0310  -0.0089   0.0414
     0.1489   0.4545   0.7836   0.8622   2.0353   3.1896   3.7869   6.8404
     7.4042   7.8077

          k = 0.0000 0.1326 0.0000 ( 11489 PWs)   bands (ev):

   -43.5633  -3.4883  -3.0557  -2.4697  -2.4329  -2.3124  -2.1022  -1.9276
    -1.8198  -1.6461  -1.5402  -1.4436  -1.3895  -1.3311  -1.2942  -1.2324
    -1.0924  -0.8954  -0.8202  -0.5110  -0.4070  -0.3459  -0.3180  -0.2505
    -0.2014  -0.1743  -0.1483  -0.1111  -0.0466   0.0006   0.0112   0.0768
     0.1650   0.4258   0.5913   1.5828   2.6118   3.6683   4.5258   7.1287
     7.7115   8.0683

          k = 0.0000 0.2652 0.0000 ( 11469 PWs)   bands (ev):

   -43.5582  -2.6786  -2.4920  -2.2528  -2.1830  -2.0993  -1.9594  -1.8653
    -1.7067  -1.6533  -1.5989  -1.5429  -1.4338  -1.2583  -0.9893  -0.9183
    -0.8762  -0.7605  -0.5726  -0.4921  -0.4000  -0.3223  -0.2910  -0.2622
    -0.2353  -0.1928  -0.1110  -0.0538   0.0142   0.0384   0.0955   0.1677
     0.1985   0.3790   1.4190   2.6742   3.6439   4.8602   6.1979   7.9270
     8.6169   8.8580

          k = 0.0000 0.3977 0.0000 ( 11401 PWs)   bands (ev):

   -43.5530  -2.5247  -2.4796  -2.3141  -2.2903  -2.1422  -1.9945  -1.9435
    -1.8998  -1.8254  -1.7659  -1.6095  -1.4759  -1.0685  -0.9350  -0.5404
    -0.4647  -0.3525  -0.2600  -0.2047  -0.1605  -0.1102  -0.0704  -0.0217
    -0.0036   0.0597   0.1278   0.2424   0.2790   0.4092   0.4605   1.0414
     1.1346   1.5671   2.7008   3.9814   4.9706   6.1609   7.0639   7.5743
     7.9265   8.4513

          k = 0.0000-0.5303 0.0000 ( 11418 PWs)   bands (ev):

   -43.5510  -2.6181  -2.5856  -2.3777  -2.3754  -2.1680  -2.0275  -1.9931
    -1.9851  -1.8940  -1.8647  -1.7151  -1.5417  -0.9342  -0.7181  -0.4234
    -0.3509  -0.2709  -0.2090  -0.1573  -0.1277  -0.1251  -0.0489  -0.0109
     0.0352   0.1457   0.2492   0.3482   0.4270   0.6931   0.7306   2.9848
     3.4761   3.5381   3.5990   3.6196   4.0120   5.5421   5.6568   6.8762
     7.6499   7.9286

          k = 0.1250 0.0442 0.0000 ( 11489 PWs)   bands (ev):

   -43.5633  -3.4883  -3.0557  -2.4697  -2.4329  -2.3124  -2.1022  -1.9276
    -1.8198  -1.6461  -1.5402  -1.4436  -1.3895  -1.3311  -1.2942  -1.2324
    -1.0924  -0.8954  -0.8202  -0.5110  -0.4070  -0.3459  -0.3180  -0.2505
    -0.2014  -0.1743  -0.1483  -0.1111  -0.0466   0.0006   0.0112   0.0768
     0.1650   0.4258   0.5913   1.5828   2.6118   3.6683   4.5258   7.1287
     7.7115   8.0683

          k = 0.1250 0.1768 0.0000 ( 11509 PWs)   bands (ev):

   -43.5608  -2.9498  -2.5876  -2.1709  -2.0213  -1.9903  -1.9711  -1.8752
    -1.7994  -1.7347  -1.5908  -1.5508  -1.5084  -1.3834  -1.3699  -1.2363
    -1.2214  -0.9258  -0.8287  -0.5206  -0.5037  -0.3519  -0.3429  -0.1915
    -0.1769  -0.0918  -0.0554  -0.0474  -0.0282   0.0393   0.0576   0.0698
     0.1096   0.3454   1.2359   2.3608   3.2869   4.4195   5.5753   7.5968
     8.2179   8.5077

          k = 0.1250 0.3094 0.0000 ( 11436 PWs)   bands (ev):

   -43.5556  -2.2920  -2.1963  -2.0926  -2.0459  -1.9609  -1.9076  -1.8539
    -1.7448  -1.6987  -1.5510  -1.4696  -1.3328  -1.1578  -1.0309  -0.9486
    -0.8573  -0.8404  -0.7245  -0.5989  -0.4847  -0.4292  -0.2803  -0.2321
    -0.1036  -0.0494  -0.0008   0.0175   0.0622   0.0712   0.0789   0.4524
     0.5807   1.2327   2.3167   3.5040   4.4189   5.7319   7.2712   8.4684
     9.2709   9.3917

          k = 0.1250 0.4419 0.0000 ( 11400 PWs)   bands (ev):

   -43.5509  -2.4021  -2.3616  -2.1728  -2.1504  -2.0370  -1.9404  -1.9185
    -1.8207  -1.7723  -1.7094  -1.5386  -1.4104  -1.0656  -0.9346  -0.6884
    -0.6244  -0.5252  -0.3571  -0.2887  -0.2728  -0.1345  -0.0972  -0.0694
    -0.0055   0.0222   0.0586   0.0998   0.2075   0.4121   0.4329   2.0003
     2.2381   2.8686   3.8253   4.8763   5.7416   6.2111   6.5394   7.3763
     7.8771   8.2901

          k = 0.1250-0.4861 0.0000 ( 11392 PWs)   bands (ev):

   -43.5495  -2.4437  -2.4168  -2.2339  -2.1977  -1.9824  -1.9066  -1.8901
    -1.8606  -1.7319  -1.7210  -1.5515  -1.4779  -1.2106  -1.0256  -0.7578
    -0.6816  -0.4914  -0.3848  -0.2877  -0.2602  -0.2148  -0.1514  -0.1191
    -0.0743  -0.0169   0.0322   0.3339   0.4717   0.7088   0.7310   3.1050
     3.3175   3.6169   4.1703   4.7069   4.9443   5.8178   6.0228   7.1276
     7.8143   8.1788

          k = 0.1250-0.3536 0.0000 ( 11413 PWs)   bands (ev):

   -43.5521  -2.3004  -2.2543  -2.1110  -2.0715  -1.8600  -1.8026  -1.7262
    -1.7080  -1.6620  -1.5969  -1.5490  -1.4949  -1.3578  -1.3333  -1.0719
    -0.9549  -0.7595  -0.5907  -0.5211  -0.3424  -0.2583  -0.1954  -0.1798
    -0.1184  -0.0173   0.0114   0.2487   0.3056   0.4755   0.5104   1.0134
     1.1168   1.5809   2.5689   3.7820   4.7763   6.1063   7.7385   8.2126
     8.6453   9.2234

          k = 0.1250-0.2210 0.0000 ( 11482 PWs)   bands (ev):

   -43.5573  -2.7081  -2.3918  -2.0942  -2.0206  -1.9174  -1.7613  -1.6872
    -1.5434  -1.4994  -1.4484  -1.3846  -1.3774  -1.3320  -1.1839  -1.0967
    -1.0700  -1.0116  -0.8038  -0.7381  -0.6087  -0.5320  -0.4818  -0.3667
    -0.3512  -0.3167  -0.2789  -0.1920  -0.1188   0.0398   0.1192   0.3075
     0.4685   0.5488   1.2999   2.4769   3.4731   4.6775   5.9158   7.8758
     8.5196   8.7917

          k = 0.1250-0.0884 0.0000 ( 11507 PWs)   bands (ev):

   -43.5619  -3.3726  -2.9290  -2.4149  -2.3157  -2.2356  -1.9914  -1.7061
    -1.6035  -1.4615  -1.3985  -1.3598  -1.2690  -1.2104  -1.1666  -1.0940
    -1.0550  -0.9830  -0.9058  -0.8276  -0.7190  -0.6191  -0.6157  -0.4869
    -0.4297  -0.3165  -0.2771  -0.2117  -0.0884  -0.0462   0.0486   0.1989
     0.4083   0.6128   0.7479   1.6108   2.6573   3.7714   4.6550   7.2286
     7.8140   8.1616

          k = 0.2500 0.0884 0.0000 ( 11469 PWs)   bands (ev):

   -43.5582  -2.6786  -2.4920  -2.2528  -2.1830  -2.0993  -1.9594  -1.8653
    -1.7067  -1.6533  -1.5989  -1.5429  -1.4338  -1.2583  -0.9893  -0.9183
    -0.8762  -0.7605  -0.5726  -0.4921  -0.4000  -0.3223  -0.2910  -0.2622
    -0.2353  -0.1928  -0.1110  -0.0538   0.0142   0.0384   0.0955   0.1677
     0.1985   0.3790   1.4190   2.6742   3.6439   4.8602   6.1979   7.9270
     8.6169   8.8580

          k = 0.2500 0.2210 0.0000 ( 11436 PWs)   bands (ev):

   -43.5556  -2.2920  -2.1963  -2.0926  -2.0459  -1.9609  -1.9076  -1.8539
    -1.7448  -1.6987  -1.5510  -1.4696  -1.3328  -1.1578  -1.0309  -0.9486
    -0.8573  -0.8404  -0.7245  -0.5989  -0.4847  -0.4292  -0.2803  -0.2321
    -0.1036  -0.0494  -0.0008   0.0175   0.0622   0.0712   0.0789   0.4524
     0.5807   1.2327   2.3167   3.5040   4.4189   5.7319   7.2712   8.4684
     9.2709   9.3917

          k = 0.2500 0.3536 0.0000 ( 11393 PWs)   bands (ev):

   -43.5509  -2.1277  -2.0820  -1.9170  -1.8794  -1.7717  -1.6877  -1.6244
    -1.5674  -1.5496  -1.5331  -1.4286  -1.3006  -1.1680  -1.1220  -1.0114
    -0.9574  -0.9155  -0.8630  -0.6908  -0.6145  -0.4096  -0.3733  -0.1530
    -0.1148  -0.0070   0.0554   0.0730   0.0751   0.1499   0.1720   1.6113
     1.9890   2.7641   3.8018   4.8504   5.8009   7.1802   8.3961   8.8430
     9.1621   9.4465

          k = 0.2500 0.4861 0.0000 ( 11399 PWs)   bands (ev):

   -43.5470  -2.1768  -2.1186  -2.0180  -1.9895  -1.9041  -1.7898  -1.7446
    -1.6549  -1.5891  -1.5476  -1.4284  -1.3013  -1.1904  -1.0804  -0.9963
    -0.9109  -0.8681  -0.6759  -0.5540  -0.4579  -0.3216  -0.2241  -0.1292
    -0.0217   0.0362   0.0854   0.1812   0.2580   0.4408   0.4591   3.7036
     4.1093   4.8018   5.5790   6.0877   6.3674   6.7375   6.8527   7.7680
     7.9872   8.7883

          k = 0.2500-0.4419 0.0000 ( 11392 PWs)   bands (ev):

   -43.5460  -2.1943  -2.1713  -2.0840  -2.0719  -2.0272  -1.9442  -1.8475
    -1.7400  -1.7035  -1.5804  -1.4693  -1.3655  -1.2016  -1.0416  -0.9462
    -0.8370  -0.7873  -0.6262  -0.5468  -0.3357  -0.2799  -0.2478  -0.1392
    -0.1178   0.0082   0.1361   0.3282   0.4842   0.6577   0.6893   3.2628
     3.5585   4.1357   4.9245   5.8226   6.6887   6.8655   7.1184   7.9563
     8.4549   8.8686

          k = 0.2500-0.3094 0.0000 ( 11406 PWs)   bands (ev):

   -43.5486  -2.2570  -2.1211  -2.0928  -2.0115  -1.9351  -1.9194  -1.8289
    -1.7879  -1.6527  -1.5935  -1.4563  -1.3616  -1.0788  -0.9332  -0.9158
    -0.7870  -0.7189  -0.6281  -0.5837  -0.4902  -0.4258  -0.3141  -0.1816
    -0.1581   0.0183   0.1230   0.1961   0.2454   0.4254   0.5279   1.0608
     1.3960   2.0810   3.0278   4.1030   5.0776   6.4109   7.9538   9.2183
     9.9288  10.1016

          k = 0.2500-0.1768 0.0000 ( 11422 PWs)   bands (ev):

   -43.5532  -2.4899  -2.1672  -2.0960  -1.9047  -1.7895  -1.6739  -1.6471
    -1.6372  -1.5373  -1.3975  -1.3783  -1.1733  -0.9913  -0.9802  -0.9664
    -0.8611  -0.8269  -0.7202  -0.6941  -0.6494  -0.5961  -0.4534  -0.4502
    -0.3593  -0.3541  -0.3345  -0.3024  -0.1754  -0.1427   0.3042   0.3527
     0.6625   0.9431   1.8304   2.9650   3.9389   5.2071   6.5486   8.3458
     9.0061   9.2770

          k = 0.2500-0.0442 0.0000 ( 11482 PWs)   bands (ev):

   -43.5573  -2.7081  -2.3918  -2.0942  -2.0206  -1.9174  -1.7613  -1.6872
    -1.5434  -1.4994  -1.4484  -1.3846  -1.3774  -1.3320  -1.1839  -1.0967
    -1.0700  -1.0116  -0.8038  -0.7381  -0.6087  -0.5320  -0.4818  -0.3667
    -0.3512  -0.3167  -0.2789  -0.1920  -0.1188   0.0398   0.1192   0.3075
     0.4685   0.5488   1.2999   2.4769   3.4731   4.6775   5.9158   7.8758
     8.5196   8.7917

          k = 0.3750 0.1326 0.0000 ( 11401 PWs)   bands (ev):

   -43.5530  -2.5247  -2.4796  -2.3141  -2.2903  -2.1422  -1.9945  -1.9435
    -1.8998  -1.8254  -1.7659  -1.6095  -1.4759  -1.0685  -0.9350  -0.5404
    -0.4647  -0.3525  -0.2600  -0.2047  -0.1605  -0.1102  -0.0704  -0.0217
    -0.0036   0.0597   0.1278   0.2424   0.2790   0.4092   0.4605   1.0414
     1.1346   1.5671   2.7008   3.9814   4.9706   6.1609   7.0639   7.5743
     7.9265   8.4512

          k = 0.3750 0.2652 0.0000 ( 11400 PWs)   bands (ev):

   -43.5509  -2.4021  -2.3616  -2.1728  -2.1504  -2.0370  -1.9404  -1.9185
    -1.8207  -1.7723  -1.7094  -1.5386  -1.4104  -1.0656  -0.9346  -0.6884
    -0.6244  -0.5252  -0.3571  -0.2887  -0.2728  -0.1345  -0.0972  -0.0694
    -0.0055   0.0222   0.0586   0.0998   0.2075   0.4121   0.4329   2.0003
     2.2381   2.8686   3.8253   4.8763   5.7416   6.2111   6.5394   7.3763
     7.8771   8.2901

          k = 0.3750 0.3977 0.0000 ( 11399 PWs)   bands (ev):

   -43.5470  -2.1768  -2.1186  -2.0180  -1.9895  -1.9041  -1.7898  -1.7446
    -1.6549  -1.5891  -1.5476  -1.4284  -1.3013  -1.1904  -1.0804  -0.9963
    -0.9109  -0.8681  -0.6759  -0.5540  -0.4579  -0.3216  -0.2241  -0.1292
    -0.0217   0.0362   0.0854   0.1812   0.2580   0.4408   0.4591   3.7036
     4.1093   4.8018   5.5790   6.0877   6.3674   6.7375   6.8527   7.7680
     7.9872   8.7883

          k = 0.3750 0.5303 0.0000 ( 11360 PWs)   bands (ev):

   -43.5434  -2.2466  -2.1821  -2.1508  -2.0908  -2.0594  -1.9754  -1.8711
    -1.8276  -1.7459  -1.6705  -1.5444  -1.4616  -1.3330  -1.1666  -0.8692
    -0.7829  -0.4743  -0.4273  -0.2205  -0.1263  -0.0184   0.0595   0.0901
     0.0949   0.1925   0.2010   0.2122   0.2484   0.4240   0.4711   5.4657
     5.9607   6.0780   6.4226   6.8504   7.0867   7.5378   7.6466   7.8603
     8.0213   8.3052

          k = 0.3750-0.3977 0.0000 ( 11395 PWs)   bands (ev):

   -43.5426  -2.4392  -2.4284  -2.4006  -2.2338  -2.2152  -2.1846  -1.9791
    -1.9720  -1.8492  -1.8202  -1.7092  -1.3869  -1.2107  -0.8633  -0.7341
    -0.5770  -0.2707  -0.2322  -0.1775  -0.1251   0.0528   0.1084   0.2065
     0.2548   0.3347   0.4382   0.4865   0.5500   0.6058   0.6255   3.4423
     3.9608   4.7728   5.6635   6.5775   7.5874   8.2543   8.4807   8.7334
     8.7573   9.0649

          k = 0.3750-0.2652 0.0000 ( 11394 PWs)   bands (ev):

   -43.5447  -2.4781  -2.3971  -2.3484  -2.2243  -2.1783  -2.1436  -1.9602
    -1.9063  -1.8299  -1.7662  -1.5897  -1.3210  -1.0800  -0.8336  -0.6703
    -0.4850  -0.3773  -0.3000  -0.1887  -0.1580   0.0097   0.0381   0.0844
     0.2224   0.2297   0.3315   0.3942   0.4736   0.4990   0.5838   1.4825
     2.1283   3.0175   3.9898   4.9679   5.9492   7.2572   8.7500   9.6582
    10.2817  10.4780

          k = 0.3750-0.1326 0.0000 ( 11406 PWs)   bands (ev):

   -43.5486  -2.2570  -2.1211  -2.0928  -2.0115  -1.9351  -1.9194  -1.8289
    -1.7879  -1.6527  -1.5935  -1.4563  -1.3616  -1.0788  -0.9332  -0.9158
    -0.7870  -0.7189  -0.6281  -0.5837  -0.4902  -0.4258  -0.3141  -0.1816
    -0.1581   0.0183   0.1230   0.1961   0.2454   0.4254   0.5279   1.0608
     1.3960   2.0810   3.0278   4.1030   5.0776   6.4109   7.9538   9.2183
     9.9288  10.1016

          k = 0.3750-0.0000 0.0000 ( 11413 PWs)   bands (ev):

   -43.5521  -2.3004  -2.2543  -2.1110  -2.0715  -1.8599  -1.8026  -1.7262
    -1.7080  -1.6620  -1.5969  -1.5490  -1.4949  -1.3578  -1.3333  -1.0719
    -0.9549  -0.7595  -0.5907  -0.5211  -0.3424  -0.2583  -0.1954  -0.1798
    -0.1184  -0.0173   0.0114   0.2487   0.3056   0.4755   0.5104   1.0134
     1.1168   1.5809   2.5689   3.7820   4.7763   6.1063   7.7385   8.2126
     8.6453   9.2235

          k =-0.5000-0.1768 0.0000 ( 11418 PWs)   bands (ev):

   -43.5510  -2.6181  -2.5856  -2.3777  -2.3754  -2.1680  -2.0275  -1.9931
    -1.9851  -1.8940  -1.8647  -1.7151  -1.5417  -0.9342  -0.7181  -0.4234
[...]
    -0.3586  -0.3229  -0.2797  -0.1932  -0.1223   0.0375   0.1097   0.3060
     0.4708   0.5747   1.2997   2.4290   3.3939   4.6294   5.8814   7.7957
     8.5613   8.7525

          k = 0.1250-0.0884 0.0000 ( 11507 PWs)   bands (ev):

   -43.6536  -3.4639  -2.9404  -2.4544  -2.3642  -2.1619  -2.0383  -1.7362
    -1.6156  -1.4876  -1.4430  -1.3049  -1.2882  -1.2481  -1.1181  -1.0983
    -1.0824  -0.9929  -0.9317  -0.8117  -0.6515  -0.6066  -0.5815  -0.4953
    -0.4121  -0.3315  -0.2811  -0.2075  -0.0865  -0.0714   0.0306   0.1909
     0.4043   0.6086   0.7899   1.5814   2.5933   3.6929   4.6367   7.1724
     7.8476   8.1275

          k = 0.2500 0.0884 0.0000 ( 11469 PWs)   bands (ev):

   -43.6499  -2.7581  -2.5420  -2.2895  -2.1865  -2.0532  -2.0314  -1.7518
    -1.7321  -1.6837  -1.6602  -1.6040  -1.4484  -1.1909  -0.9708  -0.9205
    -0.8870  -0.7194  -0.6048  -0.4252  -0.3748  -0.3297  -0.3062  -0.2957
    -0.2561  -0.1655  -0.0847  -0.0615   0.0011   0.0222   0.0785   0.1572
     0.1819   0.3876   1.4225   2.6191   3.5655   4.8230   6.1630   7.8416
     8.6600   8.8256

          k = 0.2500 0.2210 0.0000 ( 11436 PWs)   bands (ev):

   -43.6473  -2.3299  -2.2893  -2.1314  -2.0480  -1.9759  -1.9212  -1.8653
    -1.7258  -1.6672  -1.5977  -1.5081  -1.2809  -1.1371  -1.0553  -0.9530
    -0.9052  -0.7703  -0.6821  -0.6206  -0.4544  -0.4224  -0.2627  -0.1690
    -0.1162  -0.0589  -0.0230  -0.0049   0.0296   0.0444   0.0488   0.4396
     0.5945   1.2499   2.3112   3.4194   4.3502   5.7199   7.1971   8.4016
     9.3191   9.4303

          k = 0.2500 0.3536 0.0000 ( 11393 PWs)   bands (ev):

   -43.6427  -2.1484  -2.1429  -1.9223  -1.9163  -1.7227  -1.7177  -1.6985
    -1.6461  -1.5883  -1.5233  -1.5044  -1.2770  -1.0834  -1.0078  -0.9979
    -0.9816  -0.8899  -0.8818  -0.7246  -0.6058  -0.3605  -0.3271  -0.1463
    -0.0858  -0.0075   0.0287   0.0450   0.0659   0.1219   0.1372   1.5937
     2.0239   2.7784   3.7668   4.7343   5.7480   7.1866   8.4718   8.6964
     9.1763   9.4175

          k = 0.2500 0.4861 0.0000 ( 11399 PWs)   bands (ev):

   -43.6389  -2.1916  -2.1797  -2.0532  -2.0350  -1.8748  -1.8485  -1.7337
    -1.6961  -1.6380  -1.6227  -1.3470  -1.2894  -1.1570  -1.1205  -1.0437
    -0.9010  -0.7218  -0.6186  -0.5895  -0.4879  -0.3269  -0.1727  -0.1012
    -0.0284   0.0242   0.0897   0.1779   0.2438   0.4367   0.4512   3.7096
     4.1506   4.7889   5.5341   6.0770   6.3272   6.6882   6.7104   7.7716
     7.9037   8.7940

          k = 0.2500-0.4419 0.0000 ( 11392 PWs)   bands (ev):

   -43.6379  -2.2009  -2.1948  -2.1740  -2.1471  -2.0201  -1.9899  -1.8305
    -1.7660  -1.7053  -1.5907  -1.4915  -1.3683  -1.1877  -1.0272  -0.9994
    -0.8075  -0.7097  -0.5876  -0.5120  -0.3640  -0.2816  -0.2565  -0.1380
    -0.1123   0.0222   0.1604   0.3471   0.4753   0.6600   0.6808   3.2844
     3.5853   4.1260   4.8619   5.7208   6.6408   6.7692   7.1538   7.9595
     8.3758   8.8729

          k = 0.2500-0.3094 0.0000 ( 11406 PWs)   bands (ev):

   -43.6405  -2.3240  -2.1696  -2.0904  -2.0825  -1.9841  -1.9257  -1.8645
    -1.8001  -1.6246  -1.5479  -1.4892  -1.4215  -1.0219  -0.9928  -0.8131
    -0.7717  -0.7469  -0.6432  -0.5182  -0.4772  -0.4593  -0.3227  -0.1731
    -0.1470   0.0682   0.1213   0.1751   0.2239   0.4122   0.5665   1.0565
     1.4232   2.0936   3.0126   4.0104   4.9939   6.3940   7.8637   9.1395
    10.0188  10.1516

          k = 0.2500-0.1768 0.0000 ( 11422 PWs)   bands (ev):

   -43.6450  -2.5708  -2.1964  -2.1335  -1.9245  -1.7417  -1.7367  -1.7300
    -1.7117  -1.5173  -1.3896  -1.2932  -1.2237  -1.0507  -0.9686  -0.9285
    -0.8972  -0.8662  -0.6715  -0.6374  -0.5788  -0.5344  -0.4844  -0.4703
    -0.3697  -0.3685  -0.3295  -0.3188  -0.1776  -0.1400   0.3011   0.3652
     0.7082   0.9526   1.8277   2.9063   3.8553   5.1710   6.4947   8.2544
     9.0457   9.2413

          k = 0.2500-0.0442 0.0000 ( 11482 PWs)   bands (ev):

   -43.6490  -2.7951  -2.4238  -2.1316  -2.0678  -1.8674  -1.8224  -1.6005
    -1.5738  -1.5528  -1.4629  -1.4365  -1.4040  -1.3647  -1.1650  -1.1084
    -1.0392  -0.9611  -0.8419  -0.6208  -0.6036  -0.5572  -0.4577  -0.3728
    -0.3586  -0.3229  -0.2797  -0.1932  -0.1223   0.0375   0.1097   0.3060
     0.4708   0.5747   1.2997   2.4290   3.3939   4.6294   5.8814   7.7957
     8.5613   8.7525

          k = 0.3750 0.1326 0.0000 ( 11401 PWs)   bands (ev):

   -43.6448  -2.5658  -2.5568  -2.3400  -2.2966  -2.0791  -2.0498  -1.9451
    -1.9218  -1.8189  -1.7824  -1.5917  -1.4880  -1.0222  -0.9588  -0.5371
    -0.3866  -0.3373  -0.2475  -0.2042  -0.2012  -0.1372  -0.0805  -0.0312
    -0.0206   0.0529   0.1299   0.2288   0.2758   0.4114   0.4517   1.0781
     1.0952   1.5934   2.6958   3.8801   4.8480   6.1278   7.0942   7.5681
     7.7771   8.4710

          k = 0.3750 0.2652 0.0000 ( 11400 PWs)   bands (ev):

   -43.6427  -2.4394  -2.4346  -2.1769  -2.1665  -2.0225  -1.9960  -1.9257
    -1.8502  -1.7644  -1.6731  -1.5257  -1.4455  -1.0172  -0.9661  -0.6805
    -0.5976  -0.4937  -0.3316  -0.2742  -0.2370  -0.1340  -0.1178  -0.0717
    -0.0274   0.0007   0.0282   0.0905   0.1887   0.4106   0.4319   1.9902
     2.2663   2.8883   3.7975   4.7594   5.6219   6.1321   6.5799   7.3901
     7.8025   8.3326

          k = 0.3750 0.3977 0.0000 ( 11399 PWs)   bands (ev):

   -43.6389  -2.1916  -2.1797  -2.0532  -2.0350  -1.8748  -1.8485  -1.7337
    -1.6961  -1.6380  -1.6227  -1.3470  -1.2894  -1.1570  -1.1205  -1.0437
    -0.9010  -0.7218  -0.6186  -0.5895  -0.4879  -0.3269  -0.1727  -0.1012
    -0.0284   0.0242   0.0897   0.1779   0.2438   0.4367   0.4512   3.7096
     4.1506   4.7889   5.5341   6.0770   6.3272   6.6882   6.7104   7.7716
     7.9037   8.7940

          k = 0.3750 0.5303 0.0000 ( 11360 PWs)   bands (ev):

   -43.6353  -2.2831  -2.2336  -2.1960  -2.1691  -2.0731  -1.9703  -1.8756
    -1.8647  -1.7474  -1.7017  -1.5626  -1.4297  -1.3468  -1.1190  -0.8956
    -0.7410  -0.3798  -0.3608  -0.2404  -0.0940  -0.0107   0.0267   0.0906
     0.0916   0.1826   0.1970   0.2155   0.2479   0.4310   0.4601   5.6032
     6.0111   6.0200   6.4190   6.7605   7.0210   7.5193   7.6085   7.7643
     7.9662   8.2513

          k = 0.3750-0.3977 0.0000 ( 11395 PWs)   bands (ev):

   -43.6346  -2.4973  -2.4780  -2.4675  -2.2455  -2.2263  -2.2151  -2.0233
    -1.9207  -1.8831  -1.8307  -1.7153  -1.4069  -1.1833  -0.8133  -0.7443
    -0.4622  -0.2700  -0.2164  -0.1723  -0.1074   0.0469   0.0959   0.1630
     0.2911   0.3438   0.4645   0.4849   0.5330   0.5947   0.6107   3.4640
     4.0097   4.7558   5.5760   6.4719   7.5228   8.2999   8.4683   8.7172
     8.7669   8.9916

          k = 0.3750-0.2652 0.0000 ( 11394 PWs)   bands (ev):

   -43.6366  -2.5469  -2.4615  -2.3894  -2.2282  -2.2101  -2.1514  -1.9749
    -1.9042  -1.8703  -1.7630  -1.5976  -1.3144  -1.0680  -0.7931  -0.5511
    -0.4862  -0.3940  -0.3253  -0.1528  -0.1448  -0.0072  -0.0051   0.1686
     0.1809   0.2126   0.3305   0.3825   0.4527   0.4757   0.6309   1.4770
     2.1765   3.0339   3.9601   4.8605   5.8696   7.2458   8.6561   9.6218
    10.2368  10.4286

          k = 0.3750-0.1326 0.0000 ( 11406 PWs)   bands (ev):

   -43.6405  -2.3240  -2.1696  -2.0904  -2.0825  -1.9841  -1.9257  -1.8645
    -1.8001  -1.6246  -1.5479  -1.4892  -1.4215  -1.0219  -0.9928  -0.8131
    -0.7717  -0.7469  -0.6432  -0.5182  -0.4772  -0.4593  -0.3227  -0.1731
    -0.1470   0.0682   0.1213   0.1751   0.2239   0.4122   0.5665   1.0565
     1.4232   2.0936   3.0126   4.0104   4.9939   6.3940   7.8637   9.1395
    10.0188  10.1516

          k = 0.3750-0.0000 0.0000 ( 11413 PWs)   bands (ev):

   -43.6439  -2.3324  -2.3297  -2.1345  -2.1052  -1.8349  -1.8085  -1.7480
    -1.6929  -1.6764  -1.6363  -1.5850  -1.5023  -1.3713  -1.3335  -1.0680
    -0.9684  -0.6839  -0.6150  -0.3913  -0.3509  -0.2920  -0.2155  -0.1951
    -0.1273   0.0059   0.0111   0.2494   0.3056   0.4802   0.5058   1.0120
     1.1216   1.5931   2.5595   3.6890   4.6791   6.0853   7.6378   8.2725
     8.5486   9.2289

          k =-0.5000-0.1768 0.0000 ( 11418 PWs)   bands (ev):

   -43.6428  -2.6615  -2.6607  -2.3859  -2.3810  -2.1058  -2.0801  -2.0233
    -2.0025  -1.8877  -1.8561  -1.6838  -1.5880  -0.8319  -0.7550  -0.3465
    -0.3074  -0.2345  -0.2198  -0.1749  -0.1665  -0.1651  -0.0880  -0.0311
    -0.0031   0.1900   0.2123   0.3542   0.4101   0.7011   0.7383   3.1907
     3.4667   3.4796   3.5564   3.5605   3.9673   5.1752   5.6181   6.8853
     7.6302   8.0014

          k =-0.5000-0.0442 0.0000 ( 11392 PWs)   bands (ev):

   -43.6413  -2.4880  -2.4808  -2.2340  -2.2167  -1.9696  -1.9480  -1.8883
    -1.8725  -1.7318  -1.7148  -1.5580  -1.5139  -1.1874  -1.0472  -0.7636
    -0.6465  -0.3937  -0.3380  -0.3114  -0.2818  -0.2320  -0.1628  -0.1269
    -0.0996  -0.0192   0.0280   0.3549   0.4516   0.7169   0.7324   3.1967
     3.2970   3.6088   4.1506   4.6690   4.8874   5.5280   6.0000   7.1414
     7.7771   8.2026

          k =-0.5000 0.0884 0.0000 ( 11392 PWs)   bands (ev):

   -43.6379  -2.2009  -2.1948  -2.1740  -2.1471  -2.0201  -1.9899  -1.8305
    -1.7660  -1.7053  -1.5907  -1.4915  -1.3683  -1.1877  -1.0272  -0.9994
    -0.8075  -0.7097  -0.5876  -0.5120  -0.3640  -0.2816  -0.2565  -0.1380
    -0.1123   0.0222   0.1604   0.3471   0.4753   0.6600   0.6808   3.2844
     3.5853   4.1260   4.8619   5.7208   6.6408   6.7692   7.1538   7.9595
     8.3758   8.8729

          k =-0.5000 0.2210 0.0000 ( 11395 PWs)   bands (ev):

   -43.6346  -2.4973  -2.4780  -2.4675  -2.2455  -2.2263  -2.2151  -2.0233
    -1.9207  -1.8831  -1.8307  -1.7153  -1.4069  -1.1833  -0.8133  -0.7443
    -0.4622  -0.2700  -0.2164  -0.1723  -0.1074   0.0469   0.0959   0.1630
     0.2911   0.3438   0.4645   0.4849   0.5330   0.5947   0.6107   3.4640
     4.0097   4.7558   5.5760   6.4719   7.5228   8.2999   8.4683   8.7172
     8.7669   8.9916

          k =-0.5000-0.7071 0.0000 ( 11406 PWs)   bands (ev):

   -43.6332  -2.6675  -2.6387  -2.6144  -2.4076  -2.3724  -2.3275  -2.0974
    -2.0707  -2.0418  -1.8804  -1.6834  -1.3203  -1.1348  -0.6953  -0.5182
    -0.4828  -0.3220  -0.1922  -0.1193  -0.1027   0.0860   0.2210   0.5292
     0.5760   0.5763   0.6279   0.7025   0.7730   0.8281   0.8631   3.6084
     4.3714   5.2858   6.2859   7.2347   7.3518   7.4449   7.6041   8.0277
     8.6575   8.7129

     the Fermi energy is     3.4987 ev

!    total energy              =    -520.59473088 Ry
     estimated scf accuracy    <          3.0E-09 Ry
     smearing contrib. (-TS)   =      -0.00275901 Ry
     internal energy E=F+TS    =    -520.59197187 Ry

     The total energy is F=E-TS. E is the sum of the following terms:
     one-electron contribution =   -6452.91422327 Ry
     hartree contribution      =    3276.75292435 Ry
     xc contribution           =    -137.52505238 Ry
     ewald contribution        =    2793.27977117 Ry
     DFT-D3 Dispersion         =      -0.18539173 Ry

     convergence has been achieved in   8 iterations

     negative rho (up, down):  8.744E-06 0.000E+00

     Forces acting on atoms (cartesian axes, Ry/au):

     atom    1 type  2   force =    -0.00000027   -0.00000005    0.00077386
     atom    2 type  2   force =    -0.00000030    0.00000025    0.00025278
     atom    3 type  2   force =     0.00000031   -0.00000019    0.00001644
     atom    4 type  2   force =     0.00000016   -0.00000005    0.00012692
     atom    5 type  2   force =    -0.00000003    0.00000003   -0.00069840
     atom    6 type  2   force =    -0.00000003   -0.00000004   -0.00050713
     atom    7 type  1   force =     0.00000016    0.00000005    0.00003553
     The non-local contrib.  to forces
     atom    1 type  2   force =     0.00000021    0.00000005    0.04674467
     atom    2 type  2   force =    -0.00000010    0.00000007    0.01613461
     atom    3 type  2   force =     0.00000001   -0.00000001    0.00231529
     atom    4 type  2   force =     0.00000008   -0.00000021   -0.00711541
     atom    5 type  2   force =    -0.00000002   -0.00000000   -0.03109664
     atom    6 type  2   force =    -0.00000004   -0.00000003   -0.06933286
     atom    7 type  1   force =     0.00000007    0.00000005    0.02993814
     The ionic contribution  to forces
     atom    1 type  2   force =    -0.00000430   -0.00000421  142.28657512
     atom    2 type  2   force =     0.00000905   -0.00000560   83.60853092
     atom    3 type  2   force =    -0.00001017    0.00000642   23.08831747
     atom    4 type  2   force =     0.00000159    0.00000475  -37.48791248
     atom    5 type  2   force =     0.00000150   -0.00000045  -97.93820943
     atom    6 type  2   force =    -0.00000076   -0.00000154 -157.01761549
     atom    7 type  1   force =     0.00000309    0.00000063   43.46031389
     The local contribution  to forces
     atom    1 type  2   force =     0.00000375    0.00000408 -142.33091117
     atom    2 type  2   force =    -0.00000913    0.00000564  -83.62066252
     atom    3 type  2   force =     0.00001026   -0.00000654  -23.09028724
     atom    4 type  2   force =    -0.00000155   -0.00000455   37.49454685
     atom    5 type  2   force =    -0.00000151    0.00000049   97.96401855
     atom    6 type  2   force =     0.00000074    0.00000149  157.07872108
     atom    7 type  1   force =    -0.00000300   -0.00000066  -43.48846459
     The core correction contribution to forces
     atom    1 type  2   force =     0.00000003    0.00000002    0.00040567
     atom    2 type  2   force =    -0.00000000    0.00000000   -0.00071031
     atom    3 type  2   force =     0.00000001   -0.00000000    0.00004028
     atom    4 type  2   force =    -0.00000001   -0.00000002   -0.00005584
     atom    5 type  2   force =    -0.00000000    0.00000000    0.00041560
     atom    6 type  2   force =     0.00000000    0.00000001    0.00537897
     atom    7 type  1   force =     0.00000000    0.00000000    0.00000000
     The Hubbard contrib.    to forces
     atom    1 type  2   force =     0.00000000    0.00000000    0.00000000
     atom    2 type  2   force =     0.00000000    0.00000000    0.00000000
     atom    3 type  2   force =     0.00000000    0.00000000    0.00000000
     atom    4 type  2   force =     0.00000000    0.00000000    0.00000000
     atom    5 type  2   force =     0.00000000    0.00000000    0.00000000
     atom    6 type  2   force =     0.00000000    0.00000000    0.00000000
     atom    7 type  1   force =     0.00000000    0.00000000    0.00000000
     The SCF correction term to forces
     atom    1 type  2   force =    -0.00000002   -0.00000004   -0.00000066
     atom    2 type  2   force =    -0.00000001    0.00000001   -0.00009722
     atom    3 type  2   force =     0.00000000    0.00000002   -0.00000332
     atom    4 type  2   force =    -0.00000001   -0.00000003    0.00002836
     atom    5 type  2   force =    -0.00000001   -0.00000004    0.00003031
     atom    6 type  2   force =    -0.00000001   -0.00000001   -0.00003172
     atom    7 type  1   force =     0.00000000   -0.00000000    0.00003315

     DFT-D3 dispersion contribution to forces:
     atom    1 type  2   force =     0.00000002    0.00000002   -0.00204234
     atom    2 type  2   force =    -0.00000015    0.00000010   -0.00294527
     atom    3 type  2   force =     0.00000017   -0.00000012   -0.00036860
     atom    4 type  2   force =     0.00000002   -0.00000003    0.00063287
     atom    5 type  2   force =    -0.00000002    0.00000001    0.00414064
     atom    6 type  2   force =    -0.00000000    0.00000001    0.00237033
     atom    7 type  1   force =    -0.00000003    0.00000000   -0.00178763

     Total force =     0.001194     Total SCF correction =     0.000115


     Computing stress (Cartesian axis) and pressure


     negative rho (up, down):  8.744E-06 0.000E+00
          total   stress  (Ry/bohr**3)                   (kbar)     P=      -16.92
  -0.00014324  -0.00001164  -0.00000000          -21.07       -1.71       -0.00
  -0.00001164  -0.00015148   0.00000000           -1.71      -22.28        0.00
  -0.00000000   0.00000000  -0.00005037           -0.00        0.00       -7.41

     Energy error            =      6.8E-06 Ry
     Gradient error          =      7.7E-04 Ry/Bohr

     bfgs converged in  17 scf cycles and  16 bfgs steps
     (criteria: energy <  1.0E-04 Ry, force <  1.0E-03 Ry/Bohr)

     End of BFGS Geometry Optimization

     Final energy             =    -520.5947308805 Ry

     File ./Ag_mp-2646971_110_ontop_0/Ag_mp-2646971_110_ontop_0.bfgs deleted, as requested
Begin final coordinates

ATOMIC_POSITIONS (angstrom)
Ag           -0.0000412017        2.0277891107       21.4844916271
Ag            1.9117474197        0.6759474522       19.1721874371
Ag            0.0000064330        2.0277502410       16.9062511246
Ag            1.9117896259        0.6759127028       14.6395019482
Ag           -0.0000012796        2.0277539049       12.3686743495
Ag            1.9117827156        0.6759198355       10.0671292502
Li           -0.0000289144        2.0277904936       23.9971170465
End final coordinates



     Writing all to output data dir ./Ag_mp-2646971_110_ontop_0/Ag_mp-2646971_110_ontop_0.save/

     init_run     :      5.85s CPU      6.51s WALL (       1 calls)
     electrons    :     53.92s CPU     61.40s WALL (      17 calls)
     update_pot   :      3.33s CPU      3.66s WALL (      16 calls)
     forces       :      2.73s CPU      3.35s WALL (      17 calls)
     force_dftd3  :      0.15s CPU      0.44s WALL (      17 calls)
     stress       :      9.83s CPU     10.07s WALL (      17 calls)
     stres_dftd3  :      0.12s CPU      0.20s WALL (      17 calls)

     Called by init_run:
     wfcinit      :      0.42s CPU      0.70s WALL (       1 calls)
     potinit      :      1.78s CPU      1.81s WALL (       1 calls)
     hinit0       :      3.55s CPU      3.86s WALL (       1 calls)

     Called by electrons:
     c_bands      :     44.95s CPU     49.27s WALL (     162 calls)
     sum_band     :      6.36s CPU      7.17s WALL (     162 calls)
     v_of_rho     :      1.13s CPU      1.58s WALL (     172 calls)
     newd         :      0.83s CPU      0.88s WALL (     172 calls)
     mix_rho      :      0.15s CPU      0.16s WALL (     162 calls)
     energy_dftd3 :      0.10s CPU      0.14s WALL (      17 calls)

     Called by c_bands:
     init_us_2    :      0.28s CPU      0.31s WALL (    3231 calls)
     init_us_2:cp :      0.28s CPU      0.30s WALL (    3231 calls)
     cegterg      :     40.54s CPU     43.34s WALL (    1458 calls)

     Called by *egterg:
     cdiaghg      :     11.58s CPU     11.73s WALL (    5733 calls)
     h_psi        :     23.29s CPU     25.58s WALL (    5949 calls)
     s_psi        :      0.97s CPU      1.02s WALL (    5949 calls)
     g_psi        :      0.09s CPU      0.09s WALL (    4482 calls)

     Called by h_psi:
     h_psi:calbec :      1.90s CPU      2.25s WALL (    5949 calls)
     vloc_psi     :     20.36s CPU     22.22s WALL (    5949 calls)
     add_vuspsi   :      0.96s CPU      1.03s WALL (    5949 calls)

     General routines
     calbec       :      3.43s CPU      3.96s WALL (    8172 calls)
     fft          :      5.12s CPU      5.87s WALL (    2650 calls)
     ffts         :      1.84s CPU      2.14s WALL (     334 calls)
     fftw         :     22.08s CPU     24.07s WALL (  377426 calls)
     interpolate  :      1.81s CPU      2.03s WALL (     172 calls)

     Parallel routines

     PWSCF        :   1m16.59s CPU   1m27.11s WALL


   This run was terminated on:   6:35: 1  24Jul2025            

=------------------------------------------------------------------------------=
   JOB DONE.
=------------------------------------------------------------------------------=
[1753349701.938407] [rome33:2463160:0]           flush.c:57   UCX  ERROR req 0x2ec5cc0: error during flush: Connection reset by remote peer
[1753349701.938431] [rome33:2463160:0]           flush.c:57   UCX  ERROR req 0x2ec5cc0: error during flush: Connection reset by remote peer
