
     Program PWSCF v.7.2 starts on 24Jul2025 at  6:29:22 

     This program is part of the open-source Quantum ESPRESSO suite
     for quantum simulation of materials; please cite
         "P. Giannozzi et al., J. Phys.:Condens. Matter 21 395502 (2009);
         "P. Giannozzi et al., J. Phys.:Condens. Matter 29 465901 (2017);
         "P. Giannozzi et al., J. Chem. Phys. 152 154105 (2020);
          URL http://www.quantum-espresso.org", 
     in publications or presentations arising from this work. More details at
     http://www.quantum-espresso.org/quote

     Parallel version (MPI & OpenMP), running on     192 processor cores
     Number of MPI processes:               192
     Threads/MPI process:                     1

     MPI processes distributed on     3 nodes
     240145 MiB available memory on the printing compute node when the environment starts

     Reading input from Ag_mp-2646971_100_ontop_0.in

     Current dimensions of program PWSCF are:
     Max number of different atomic species (ntypx) = 10
     Max number of k-points (npk) =  40000
     Max angular momentum in pseudopotentials (lmaxx) =  4
     Message from routine iosys:
     restart disabled: needed files not found
     Message from routine find_sym:
     Not a group! Trying with lower acceptance parameter...
     Message from routine find_sym:
     Symmetry operations form a group

     K-points division:     npool     =       4
     R & G space division:  proc/nbgrp/npool/nimage =      48
     Subspace diagonalization in iterative solution of the eigenvalue problem:
     a serial algorithm will be used


     Parallelization info
     --------------------
     sticks:   dense  smooth     PW     G-vecs:    dense   smooth      PW
     Min          32      14      4                 8216     2396     390
     Max          33      15      6                 8255     2433     409
     Sum        1565     681    213               395265   115253   18959

     Using Slab Decomposition



     bravais-lattice index     =            0
     lattice parameter (alat)  =       6.2575  a.u.
     unit-cell volume          =    2092.4187 (a.u.)^3
     number of atoms/cell      =            7
     number of atomic types    =            2
     number of electrons       =        69.00
     number of Kohn-Sham states=           42
     kinetic-energy cutoff     =      55.0000  Ry
     charge density cutoff     =     500.0000  Ry
     scf convergence threshold =      1.0E-06
     mixing beta               =       0.3000
     number of iterations used =            8  plain     mixing
     energy convergence thresh.=      1.0E-04
     force convergence thresh. =      1.0E-03
     Exchange-correlation= PBE
                           (   1   4   3   4   0   0   0)
     nstep                     =          500


     celldm(1)=   6.257465  celldm(2)=   0.000000  celldm(3)=   0.000000
     celldm(4)=   0.000000  celldm(5)=   0.000000  celldm(6)=   0.000000

     crystal axes: (cart. coord. in units of alat)
               a(1) = (   1.000000   0.000000   0.000000 )  
               a(2) = (   0.000000   1.000000   0.000000 )  
               a(3) = (   0.000000   0.000000   8.539909 )  

     reciprocal axes: (cart. coord. in units 2 pi/alat)
               b(1) = (  1.000000 -0.000000  0.000000 )  
               b(2) = (  0.000000  1.000000  0.000000 )  
               b(3) = ( -0.000000 -0.000000  0.117097 )  


     PseudoPot. # 1 for Li read from file:
     /home/ecastro/trabajo_final/pseudos/Li.pbe-s-rrkjus_psl.1.0.0.UPF
     MD5 check sum: 9f98d2529904d60b716d33989e9bc179
     Pseudo is Ultrasoft, Zval =  3.0
     Generated using &quot;atomic&quot; code by A. Dal Corso  v.6.3MaX
     Using radial grid of 1017 points,  4 beta functions with: 
                l(1) =   0
                l(2) =   0
                l(3) =   1
                l(4) =   1
     Q(r) pseudized with 0 coefficients 


     PseudoPot. # 2 for Ag read from file:
     /home/ecastro/trabajo_final/pseudos/Ag.pbe-n-rrkjus_psl.1.0.0.UPF
     MD5 check sum: 81cdf87bacf708300839c66ee23ce017
     Pseudo is Ultrasoft + core correction, Zval = 11.0
     Generated using &quot;atomic&quot; code by A. Dal Corso  v.6.2.2
     Using radial grid of 1237 points,  6 beta functions with: 
                l(1) =   0
                l(2) =   0
                l(3) =   1
                l(4) =   1
                l(5) =   2
                l(6) =   2
     Q(r) pseudized with 0 coefficients 


     atomic species   valence    mass     pseudopotential
        Li             3.00     6.94100     Li( 1.00)
        Ag            11.00   107.86820     Ag( 1.00)

     No symmetry found



   Cartesian axes

     site n.     atom                  positions (alat units)
         1           Ag  tau(   1) = (   0.7499951   0.7500009   5.0116146  )
         2           Ag  tau(   2) = (   0.2499915   0.2500003   5.4896545  )
         3           Ag  tau(   3) = (   0.7500000   0.7500000   4.0199546  )
         4           Ag  tau(   4) = (   0.2500000   0.2500000   4.5199546  )
         5           Ag  tau(   5) = (   0.7500000   0.7500000   3.0199546  )
         6           Ag  tau(   6) = (   0.2500000   0.2500000   3.5199546  )
         7           Li  tau(   7) = (   0.2499915   0.2500003   6.0936455  )

     --------------------------------------------
     DFT-D3 Dispersion Correction (no 3-body):
     --------------------------------------------
       Reference C6 values for interpolation: 

         atom   Coordination number   C6
         Li         0.000          2326.89
         Li         0.987           170.64
         Ag         0.000           853.49
         Ag         0.968           537.23

       Values used:

         atom   Coordination number  R0_AB[au]  C6      C8
         Ag         7.576            3.147    537.23  47741.54
         Ag         5.698            3.147    537.23  47741.54
         Ag         7.528            3.147    537.23  47741.54
         Ag         7.672            3.147    537.23  47741.54
         Ag         4.234            3.147    537.23  47741.54
         Ag         7.251            3.147    537.23  47741.54
         Li         2.759            3.303    170.64  12899.87

         Molecular C6 ( Ry / a.u.^6 ) =     22982.53


     number of k points=    34  Methfessel-Paxton smearing, width (Ry)=  0.0300
                       cart. coord. in units 2pi/alat
        k(    1) = (   0.0000000   0.0000000   0.0000000), wk =   0.0312500
        k(    2) = (   0.0000000   0.1250000   0.0000000), wk =   0.0625000
        k(    3) = (   0.0000000   0.2500000   0.0000000), wk =   0.0625000
        k(    4) = (   0.0000000   0.3750000   0.0000000), wk =   0.0625000
        k(    5) = (   0.0000000  -0.5000000   0.0000000), wk =   0.0312500
        k(    6) = (   0.1250000  -0.0000000   0.0000000), wk =   0.0625000
        k(    7) = (   0.1250000   0.1250000   0.0000000), wk =   0.0625000
        k(    8) = (   0.1250000   0.2500000   0.0000000), wk =   0.0625000
        k(    9) = (   0.1250000   0.3750000   0.0000000), wk =   0.0625000
        k(   10) = (   0.1250000  -0.5000000   0.0000000), wk =   0.0625000
        k(   11) = (   0.1250000  -0.3750000   0.0000000), wk =   0.0625000
        k(   12) = (   0.1250000  -0.2500000   0.0000000), wk =   0.0625000
        k(   13) = (   0.1250000  -0.1250000   0.0000000), wk =   0.0625000
        k(   14) = (   0.2500000  -0.0000000   0.0000000), wk =   0.0625000
        k(   15) = (   0.2500000   0.1250000   0.0000000), wk =   0.0625000
        k(   16) = (   0.2500000   0.2500000   0.0000000), wk =   0.0625000
        k(   17) = (   0.2500000   0.3750000   0.0000000), wk =   0.0625000
        k(   18) = (   0.2500000  -0.5000000   0.0000000), wk =   0.0625000
        k(   19) = (   0.2500000  -0.3750000   0.0000000), wk =   0.0625000
        k(   20) = (   0.2500000  -0.2500000   0.0000000), wk =   0.0625000
        k(   21) = (   0.2500000  -0.1250000   0.0000000), wk =   0.0625000
        k(   22) = (   0.3750000  -0.0000000   0.0000000), wk =   0.0625000
        k(   23) = (   0.3750000   0.1250000   0.0000000), wk =   0.0625000
        k(   24) = (   0.3750000   0.2500000   0.0000000), wk =   0.0625000
        k(   25) = (   0.3750000   0.3750000   0.0000000), wk =   0.0625000
        k(   26) = (   0.3750000  -0.5000000   0.0000000), wk =   0.0625000
        k(   27) = (   0.3750000  -0.3750000   0.0000000), wk =   0.0625000
        k(   28) = (   0.3750000  -0.2500000   0.0000000), wk =   0.0625000
        k(   29) = (   0.3750000  -0.1250000   0.0000000), wk =   0.0625000
        k(   30) = (  -0.5000000   0.0000000   0.0000000), wk =   0.0312500
        k(   31) = (  -0.5000000   0.1250000   0.0000000), wk =   0.0625000
        k(   32) = (  -0.5000000   0.2500000   0.0000000), wk =   0.0625000
        k(   33) = (  -0.5000000   0.3750000   0.0000000), wk =   0.0625000
        k(   34) = (  -0.5000000  -0.5000000   0.0000000), wk =   0.0312500

     Dense  grid:   395265 G-vectors     FFT dimensions: (  45,  45, 384)

     Smooth grid:   115253 G-vectors     FFT dimensions: (  30,  30, 256)

     Estimated max dynamical RAM per process >      17.19 MB

     Estimated total dynamical RAM >       2.94 GB
     Cannot read rho : file not found

     Initial potential from superposition of free atoms

     starting charge      68.9930, renormalised to      69.0000

     negative rho (up, down):  4.657E-05 0.000E+00
     Message from routine qexsd_readschema :
     xml data file ./Ag_mp-2646971_100_ontop_0/Ag_mp-2646971_100_ontop_0.save/data-fi
     Cannot read wfcs: file not found
     Starting wfcs are   59 randomized atomic wfcs

     total cpu time spent up to now is        5.4 secs

     per-process dynamical memory:   174.5 Mb

     Self-consistent Calculation

     iteration #  1     ecut=    55.00 Ry     beta= 0.30
     Davidson diagonalization with overlap
     c_bands:  1 eigenvalues not converged
     c_bands:  2 eigenvalues not converged
     c_bands:  2 eigenvalues not converged
     c_bands:  1 eigenvalues not converged
     c_bands:  1 eigenvalues not converged
     ethr =  1.00E-05,  avg # of iterations = 18.0

     negative rho (up, down):  3.798E-05 0.000E+00

     total cpu time spent up to now is        7.3 secs

     total energy              =    -520.42949919 Ry
     estimated scf accuracy    <       0.26362873 Ry

     iteration #  2     ecut=    55.00 Ry     beta= 0.30
     Davidson diagonalization with overlap
     ethr =  3.82E-04,  avg # of iterations =  8.3

     negative rho (up, down):  4.693E-05 0.000E+00

     total cpu time spent up to now is        7.9 secs

     total energy              =    -520.34045987 Ry
     estimated scf accuracy    <       2.10384621 Ry

     iteration #  3     ecut=    55.00 Ry     beta= 0.30
     Davidson diagonalization with overlap
     ethr =  3.82E-04,  avg # of iterations =  6.1

     negative rho (up, down):  4.831E-05 0.000E+00

     total cpu time spent up to now is        8.5 secs

     total energy              =    -520.46513201 Ry
     estimated scf accuracy    <       0.87015356 Ry

     iteration #  4     ecut=    55.00 Ry     beta= 0.30
     Davidson diagonalization with overlap
     ethr =  3.82E-04,  avg # of iterations =  2.8

     negative rho (up, down):  2.855E-05 0.000E+00

     total cpu time spent up to now is        9.0 secs

     total energy              =    -520.49775941 Ry
     estimated scf accuracy    <       0.14268977 Ry

     iteration #  5     ecut=    55.00 Ry     beta= 0.30
     Davidson diagonalization with overlap
     ethr =  2.07E-04,  avg # of iterations =  1.6

     negative rho (up, down):  1.604E-05 0.000E+00

     total cpu time spent up to now is        9.3 secs

     total energy              =    -520.50432198 Ry
     estimated scf accuracy    <       0.00314488 Ry

     iteration #  6     ecut=    55.00 Ry     beta= 0.30
     Davidson diagonalization with overlap
     ethr =  4.56E-06,  avg # of iterations = 11.0

     negative rho (up, down):  1.313E-05 0.000E+00

     total cpu time spent up to now is       10.1 secs

     total energy              =    -520.50475766 Ry
     estimated scf accuracy    <       0.00069726 Ry

     iteration #  7     ecut=    55.00 Ry     beta= 0.30
     Davidson diagonalization with overlap
     ethr =  1.01E-06,  avg # of iterations =  1.9

     negative rho (up, down):  1.375E-05 0.000E+00

     total cpu time spent up to now is       10.5 secs

     total energy              =    -520.50482433 Ry
     estimated scf accuracy    <       0.00021013 Ry

     iteration #  8     ecut=    55.00 Ry     beta= 0.30
     Davidson diagonalization with overlap
     ethr =  3.05E-07,  avg # of iterations =  1.7

     negative rho (up, down):  1.910E-05 0.000E+00

     total cpu time spent up to now is       10.8 secs

     total energy              =    -520.50485593 Ry
     estimated scf accuracy    <       0.00004723 Ry

     iteration #  9     ecut=    55.00 Ry     beta= 0.30
     Davidson diagonalization with overlap
     ethr =  6.85E-08,  avg # of iterations =  2.2

     negative rho (up, down):  1.634E-05 0.000E+00

     total cpu time spent up to now is       11.3 secs

     total energy              =    -520.50485908 Ry
     estimated scf accuracy    <       0.00001908 Ry

     iteration # 10     ecut=    55.00 Ry     beta= 0.30
     Davidson diagonalization with overlap
     ethr =  2.76E-08,  avg # of iterations =  2.0

     negative rho (up, down):  1.465E-05 0.000E+00

     total cpu time spent up to now is       11.7 secs

     total energy              =    -520.50486126 Ry
     estimated scf accuracy    <       0.00000167 Ry

     iteration # 11     ecut=    55.00 Ry     beta= 0.30
     Davidson diagonalization with overlap
     ethr =  2.42E-09,  avg # of iterations =  4.8

     negative rho (up, down):  1.213E-05 0.000E+00

     total cpu time spent up to now is       12.1 secs

     End of self-consistent calculation

          k = 0.0000 0.0000 0.0000 ( 14575 PWs)   bands (ev):

   -45.4599  -4.9685  -4.0631  -3.8279  -3.7611  -3.4341  -3.3763  -3.1022
    -2.8903  -2.6949  -2.6949  -2.6071  -2.5779  -2.4985  -2.4985  -2.2913
    -2.2520  -2.2520  -2.2494  -1.8263  -1.8105  -1.8105  -1.7737  -1.7688
    -1.4435  -1.3559  -1.2700  -1.2699  -1.2476  -0.9530  -0.8971  -0.8077
    -0.8077  -0.6996   0.2847   1.5038   2.8153   4.5328   5.4088   5.8637
     6.7406   6.9037

          k = 0.0000 0.1250 0.0000 ( 14507 PWs)   bands (ev):

   -45.4594  -4.7414  -3.9288  -3.7306  -3.6549  -3.4076  -3.2640  -3.1949
    -2.8588  -2.8162  -2.7042  -2.6760  -2.6513  -2.4996  -2.4817  -2.4362
    -2.2533  -2.1047  -2.0209  -1.9622  -1.8069  -1.7116  -1.6730  -1.5757
    -1.5219  -1.4477  -1.3452  -1.2748  -1.0653  -1.0451  -0.9563  -0.8561
    -0.7356  -0.6926   0.4828   1.7279   3.0623   4.7962   5.6266   6.0856
     6.9527   7.1562

          k = 0.0000 0.2500 0.0000 ( 14429 PWs)   bands (ev):

   -45.4585  -4.1652  -3.7616  -3.5383  -3.4276  -3.4018  -3.3508  -3.0428
    -2.9466  -2.9331  -2.8634  -2.6701  -2.6418  -2.5767  -2.3682  -2.1697
    -2.1479  -2.0493  -1.8644  -1.7947  -1.7389  -1.6128  -1.5605  -1.5460
    -1.4988  -1.4946  -1.4389  -1.2154  -1.1960  -1.0494  -0.9429  -0.6488
    -0.6248  -0.5650   1.0656   2.3483   3.7124   4.9313   5.4725   5.8313
     6.2176   6.7134

          k = 0.0000 0.3750 0.0000 ( 14361 PWs)   bands (ev):

   -45.4577  -3.8971  -3.7502  -3.5395  -3.3569  -3.2223  -3.1556  -3.1218
    -3.0771  -2.7960  -2.7840  -2.7044  -2.6452  -2.4428  -2.2498  -2.1056
    -2.1020  -1.9271  -1.8325  -1.7397  -1.6393  -1.6038  -1.5540  -1.4939
    -1.4357  -1.3670  -1.3174  -0.9581  -0.9016  -0.8900  -0.6204  -0.5824
    -0.5558   0.4290   1.9352   2.3987   3.1739   3.5329   4.1766   4.8843
     5.7442   7.0566

          k = 0.0000-0.5000 0.0000 ( 14350 PWs)   bands (ev):

   -45.4574  -3.9327  -3.8131  -3.4756  -3.3797  -3.2884  -3.1943  -2.9530
    -2.9063  -2.8379  -2.7752  -2.7037  -2.5241  -2.2909  -2.2717  -2.2245
    -2.1339  -1.9056  -1.8620  -1.6522  -1.6389  -1.6152  -1.5727  -1.4137
    -1.4042  -1.3643  -1.2272  -0.9444  -0.8718  -0.5432  -0.5395   0.3594
     0.3982   0.9831   1.0409   1.7419   2.3541   3.2609   4.0629   4.5874
     5.0656   7.3823

          k = 0.1250-0.0000 0.0000 ( 14507 PWs)   bands (ev):

   -45.4594  -4.7414  -3.9288  -3.7306  -3.6549  -3.4076  -3.2640  -3.1949
    -2.8588  -2.8162  -2.7042  -2.6760  -2.6513  -2.4996  -2.4817  -2.4362
    -2.2533  -2.1047  -2.0209  -1.9622  -1.8069  -1.7116  -1.6730  -1.5757
    -1.5219  -1.4477  -1.3452  -1.2748  -1.0653  -1.0451  -0.9563  -0.8561
    -0.7356  -0.6926   0.4828   1.7279   3.0623   4.7962   5.6266   6.0856
     6.9527   7.1562

          k = 0.1250 0.1250 0.0000 ( 14465 PWs)   bands (ev):

   -45.4590  -4.5241  -3.7858  -3.6217  -3.5606  -3.2963  -3.2349  -3.1517
    -2.9395  -2.9054  -2.7548  -2.7142  -2.6151  -2.5756  -2.5435  -2.4345
    -2.3295  -2.0491  -2.0040  -1.9142  -1.7475  -1.7419  -1.6234  -1.6050
    -1.4713  -1.4088  -1.3357  -1.2110  -1.1709  -1.0839  -0.8585  -0.7823
    -0.7764  -0.6750   0.7337   1.9624   3.3186   5.0573   5.8452   6.3049
     7.1693   7.4000

          k = 0.1250 0.2500 0.0000 ( 14449 PWs)   bands (ev):

   -45.4583  -3.9928  -3.6105  -3.4095  -3.3583  -3.3185  -3.2255  -3.0985
    -2.9910  -2.9241  -2.8269  -2.7392  -2.6959  -2.5736  -2.4926  -2.3179
    -2.2561  -2.1079  -1.9203  -1.7761  -1.7157  -1.6416  -1.5814  -1.5264
    -1.4985  -1.3405  -1.2974  -1.2347  -1.2032  -1.0540  -0.9163  -0.8082
    -0.7162  -0.0701   1.3996   2.6058   3.9969   5.2449   5.7414   6.0749
     6.4630   6.9328

          k = 0.1250 0.3750 0.0000 ( 14401 PWs)   bands (ev):

   -45.4574  -3.7601  -3.6320  -3.4489  -3.2902  -3.2350  -3.1420  -3.1166
    -3.0731  -2.8810  -2.8055  -2.7010  -2.6707  -2.4713  -2.3367  -2.2004
    -2.0668  -1.9051  -1.8914  -1.6866  -1.6633  -1.5870  -1.5363  -1.4921
    -1.4249  -1.3517  -1.2518  -1.1514  -1.0184  -0.8535  -0.7631  -0.7385
    -0.1613   0.9690   2.3410   2.7049   3.5032   3.7937   4.4832   5.1305
     5.9431   7.2178

          k = 0.1250-0.5000 0.0000 ( 14406 PWs)   bands (ev):

   -45.4572  -3.7998  -3.6927  -3.4112  -3.3481  -3.2942  -3.1588  -3.0725
    -2.9441  -2.8791  -2.7984  -2.7116  -2.6018  -2.4717  -2.2212  -2.1904
    -2.0169  -1.8865  -1.7945  -1.7046  -1.6789  -1.5376  -1.4849  -1.4284
    -1.3974  -1.2925  -1.1717  -1.0614  -1.0246  -0.8646  -0.8375   0.6162
     0.6315   1.3640   1.4459   2.2698   2.7799   3.5942   4.2667   4.8601
     5.2347   7.5475

          k = 0.1250-0.3750 0.0000 ( 14401 PWs)   bands (ev):

   -45.4574  -3.7601  -3.6320  -3.4489  -3.2902  -3.2350  -3.1420  -3.1166
    -3.0731  -2.8810  -2.8055  -2.7010  -2.6707  -2.4713  -2.3367  -2.2004
    -2.0668  -1.9051  -1.8914  -1.6866  -1.6633  -1.5870  -1.5363  -1.4921
    -1.4249  -1.3517  -1.2518  -1.1514  -1.0184  -0.8535  -0.7631  -0.7385
    -0.1613   0.9690   2.3410   2.7049   3.5032   3.7937   4.4832   5.1305
     5.9431   7.2178

          k = 0.1250-0.2500 0.0000 ( 14449 PWs)   bands (ev):

   -45.4583  -3.9928  -3.6105  -3.4095  -3.3583  -3.3185  -3.2255  -3.0985
    -2.9910  -2.9241  -2.8269  -2.7392  -2.6959  -2.5736  -2.4926  -2.3179
    -2.2561  -2.1079  -1.9203  -1.7761  -1.7157  -1.6416  -1.5814  -1.5264
    -1.4985  -1.3405  -1.2974  -1.2347  -1.2032  -1.0540  -0.9163  -0.8082
    -0.7162  -0.0701   1.3996   2.6058   3.9969   5.2449   5.7414   6.0749
     6.4630   6.9328

          k = 0.1250-0.1250 0.0000 ( 14465 PWs)   bands (ev):

   -45.4590  -4.5241  -3.7858  -3.6217  -3.5606  -3.2963  -3.2349  -3.1517
    -2.9395  -2.9055  -2.7548  -2.7142  -2.6151  -2.5756  -2.5435  -2.4345
    -2.3295  -2.0491  -2.0040  -1.9142  -1.7475  -1.7419  -1.6234  -1.6050
    -1.4713  -1.4088  -1.3357  -1.2110  -1.1709  -1.0839  -0.8585  -0.7823
    -0.7764  -0.6750   0.7337   1.9624   3.3186   5.0573   5.8452   6.3049
     7.1693   7.4000

          k = 0.2500-0.0000 0.0000 ( 14429 PWs)   bands (ev):

   -45.4585  -4.1652  -3.7616  -3.5383  -3.4276  -3.4018  -3.3508  -3.0428
    -2.9466  -2.9331  -2.8634  -2.6701  -2.6418  -2.5767  -2.3682  -2.1697
    -2.1479  -2.0493  -1.8644  -1.7947  -1.7389  -1.6128  -1.5605  -1.5460
    -1.4988  -1.4946  -1.4389  -1.2154  -1.1960  -1.0494  -0.9429  -0.6488
    -0.6248  -0.5650   1.0656   2.3483   3.7124   4.9313   5.4725   5.8313
     6.2176   6.7135

          k = 0.2500 0.1250 0.0000 ( 14449 PWs)   bands (ev):

   -45.4583  -3.9928  -3.6105  -3.4095  -3.3583  -3.3185  -3.2255  -3.0985
    -2.9910  -2.9241  -2.8269  -2.7392  -2.6959  -2.5736  -2.4926  -2.3179
    -2.2561  -2.1079  -1.9203  -1.7761  -1.7157  -1.6416  -1.5814  -1.5264
    -1.4985  -1.3405  -1.2974  -1.2347  -1.2032  -1.0540  -0.9163  -0.8082
    -0.7162  -0.0701   1.3996   2.6058   3.9969   5.2449   5.7414   6.0750
     6.4630   6.9328

          k = 0.2500 0.2500 0.0000 ( 14420 PWs)   bands (ev):

   -45.4575  -3.6692  -3.4165  -3.3333  -3.2692  -3.2172  -3.0204  -2.9597
    -2.9492  -2.9005  -2.8881  -2.8127  -2.8021  -2.7078  -2.4331  -2.4084
    -2.3687  -2.1266  -1.9772  -1.7966  -1.6577  -1.5177  -1.4971  -1.4782
    -1.4190  -1.3515  -1.3145  -1.2433  -1.1067  -1.1036  -0.9821  -0.7112
    -0.3841   0.7970   2.1852   3.3000   4.7429   5.5515   6.4314   6.4331
     6.7081   7.0239

          k = 0.2500 0.3750 0.0000 ( 14394 PWs)   bands (ev):

   -45.4567  -3.6052  -3.4780  -3.3750  -3.2953  -3.2348  -3.2038  -3.0414
    -3.0379  -2.9243  -2.7725  -2.7478  -2.6663  -2.5115  -2.3478  -2.2194
    -2.1213  -2.0013  -1.8870  -1.6865  -1.6358  -1.5197  -1.4996  -1.4017
    -1.3536  -1.3421  -1.2476  -1.1781  -1.1017  -1.0659  -0.7530  -0.3991
     0.6515   1.9414   3.2260   3.4033   4.2682   4.4746   5.3588   5.8045
     6.5407   7.5324

          k = 0.2500-0.5000 0.0000 ( 14414 PWs)   bands (ev):

   -45.4564  -3.6277  -3.5106  -3.4166  -3.3355  -3.3071  -3.2388  -3.1350
    -3.0736  -2.9555  -2.7583  -2.7383  -2.6798  -2.4124  -2.1904  -2.0315
    -1.9692  -1.9525  -1.7597  -1.7183  -1.6209  -1.5445  -1.4928  -1.3514
    -1.3470  -1.3182  -1.2238  -1.1663  -1.0603  -0.9684  -0.9238   1.2255
     1.2351   2.2045   2.2580   3.3182   3.6495   4.5878   4.8471   5.6963
     5.7248   7.9000

          k = 0.2500-0.3750 0.0000 ( 14394 PWs)   bands (ev):

   -45.4567  -3.6052  -3.4780  -3.3750  -3.2953  -3.2348  -3.2038  -3.0414
    -3.0379  -2.9243  -2.7725  -2.7478  -2.6663  -2.5115  -2.3478  -2.2194
    -2.1213  -2.0013  -1.8870  -1.6865  -1.6358  -1.5197  -1.4996  -1.4017
    -1.3536  -1.3421  -1.2476  -1.1781  -1.1017  -1.0659  -0.7530  -0.3991
     0.6515   1.9414   3.2260   3.4033   4.2682   4.4746   5.3588   5.8045
     6.5407   7.5325

          k = 0.2500-0.2500 0.0000 ( 14420 PWs)   bands (ev):

   -45.4575  -3.6692  -3.4165  -3.3333  -3.2692  -3.2172  -3.0204  -2.9597
    -2.9492  -2.9005  -2.8881  -2.8127  -2.8021  -2.7078  -2.4331  -2.4084
    -2.3687  -2.1266  -1.9772  -1.7966  -1.6577  -1.5177  -1.4971  -1.4782
    -1.4190  -1.3515  -1.3145  -1.2433  -1.1067  -1.1036  -0.9821  -0.7112
    -0.3841   0.7970   2.1852   3.3000   4.7429   5.5515   6.4314   6.4331
     6.7081   7.0239

          k = 0.2500-0.1250 0.0000 ( 14449 PWs)   bands (ev):

   -45.4583  -3.9928  -3.6105  -3.4095  -3.3583  -3.3185  -3.2255  -3.0985
    -2.9910  -2.9241  -2.8269  -2.7392  -2.6959  -2.5736  -2.4926  -2.3179
    -2.2561  -2.1079  -1.9203  -1.7761  -1.7157  -1.6416  -1.5814  -1.5264
    -1.4985  -1.3405  -1.2974  -1.2347  -1.2032  -1.0540  -0.9163  -0.8082
    -0.7162  -0.0701   1.3996   2.6058   3.9969   5.2449   5.7414   6.0749
     6.4630   6.9329

          k = 0.3750-0.0000 0.0000 ( 14361 PWs)   bands (ev):

   -45.4577  -3.8971  -3.7502  -3.5395  -3.3569  -3.2223  -3.1556  -3.1218
    -3.0771  -2.7960  -2.7840  -2.7044  -2.6452  -2.4428  -2.2498  -2.1056
    -2.1020  -1.9271  -1.8325  -1.7397  -1.6393  -1.6038  -1.5540  -1.4939
    -1.4357  -1.3670  -1.3173  -0.9581  -0.9016  -0.8900  -0.6204  -0.5824
    -0.5558   0.4290   1.9352   2.3987   3.1739   3.5329   4.1766   4.8843
     5.7442   7.0566

          k = 0.3750 0.1250 0.0000 ( 14401 PWs)   bands (ev):

   -45.4574  -3.7601  -3.6320  -3.4489  -3.2902  -3.2350  -3.1420  -3.1166
    -3.0731  -2.8810  -2.8055  -2.7010  -2.6707  -2.4713  -2.3367  -2.2004
    -2.0668  -1.9051  -1.8914  -1.6866  -1.6633  -1.5870  -1.5363  -1.4921
    -1.4249  -1.3517  -1.2518  -1.1514  -1.0184  -0.8535  -0.7631  -0.7385
    -0.1613   0.9690   2.3410   2.7049   3.5032   3.7937   4.4832   5.1305
     5.9431   7.2181

          k = 0.3750 0.2500 0.0000 ( 14394 PWs)   bands (ev):

   -45.4567  -3.6052  -3.4780  -3.3750  -3.2953  -3.2348  -3.2038  -3.0414
    -3.0379  -2.9243  -2.7725  -2.7478  -2.6663  -2.5115  -2.3478  -2.2194
    -2.1213  -2.0013  -1.8870  -1.6865  -1.6358  -1.5197  -1.4996  -1.4017
    -1.3536  -1.3421  -1.2476  -1.1781  -1.1017  -1.0659  -0.7530  -0.3991
     0.6515   1.9414   3.2260   3.4033   4.2682   4.4746   5.3588   5.8045
     6.5407   7.5324

          k = 0.3750 0.3750 0.0000 ( 14360 PWs)   bands (ev):

   -45.4559  -3.7429  -3.5686  -3.3732  -3.3087  -3.3040  -3.1967  -3.1481
    -2.9628  -2.9446  -2.9144  -2.8265  -2.5468  -2.4207  -2.2694  -2.0956
    -2.0784  -1.9466  -1.9274  -1.5331  -1.4403  -1.4009  -1.3318  -1.3259
    -1.2976  -1.2848  -1.2276  -1.2003  -1.0801  -1.0421  -0.6983   0.5137
     1.7585   3.1273   3.5720   4.3727   4.7287   5.3181   6.0866   6.1696
     6.3931   6.9903

          k = 0.3750-0.5000 0.0000 ( 14356 PWs)   bands (ev):

   -45.4556  -3.7985  -3.6469  -3.3632  -3.3496  -3.3118  -3.2916  -3.1306
    -3.0636  -3.0466  -2.8670  -2.8509  -2.5896  -2.3573  -2.3004  -2.0989
    -1.8903  -1.8143  -1.6541  -1.5172  -1.4429  -1.4322  -1.3444  -1.2976
    -1.2373  -1.2279  -1.2070  -1.1619  -1.0360  -0.8677  -0.8032   2.0494
     2.0652   3.2560   3.2573   4.5174   4.6789   5.7633   5.7781   6.3363
     6.9746   7.1462

          k = 0.3750-0.3750 0.0000 ( 14360 PWs)   bands (ev):

   -45.4559  -3.7429  -3.5686  -3.3732  -3.3087  -3.3040  -3.1967  -3.1481
    -2.9628  -2.9446  -2.9144  -2.8265  -2.5468  -2.4207  -2.2694  -2.0956
    -2.0784  -1.9466  -1.9274  -1.5331  -1.4403  -1.4009  -1.3318  -1.3259
    -1.2976  -1.2848  -1.2276  -1.2003  -1.0801  -1.0421  -0.6983   0.5137
     1.7585   3.1273   3.5720   4.3727   4.7287   5.3181   6.0866   6.1696
     6.3931   6.9903

          k = 0.3750-0.2500 0.0000 ( 14394 PWs)   bands (ev):

   -45.4567  -3.6052  -3.4780  -3.3750  -3.2953  -3.2348  -3.2038  -3.0414
    -3.0379  -2.9243  -2.7725  -2.7478  -2.6663  -2.5115  -2.3478  -2.2194
    -2.1213  -2.0013  -1.8870  -1.6865  -1.6358  -1.5197  -1.4996  -1.4017
    -1.3536  -1.3421  -1.2476  -1.1781  -1.1017  -1.0659  -0.7530  -0.3991
     0.6515   1.9414   3.2260   3.4033   4.2682   4.4746   5.3588   5.8045
     6.5407   7.5323

          k = 0.3750-0.1250 0.0000 ( 14401 PWs)   bands (ev):

   -45.4574  -3.7601  -3.6320  -3.4489  -3.2902  -3.2350  -3.1420  -3.1166
    -3.0731  -2.8810  -2.8055  -2.7010  -2.6707  -2.4713  -2.3367  -2.2004
    -2.0668  -1.9051  -1.8914  -1.6866  -1.6633  -1.5870  -1.5363  -1.4921
    -1.4249  -1.3517  -1.2518  -1.1514  -1.0184  -0.8535  -0.7631  -0.7385
    -0.1613   0.9690   2.3410   2.7049   3.5032   3.7937   4.4832   5.1305
     5.9431   7.2181

          k =-0.5000 0.0000 0.0000 ( 14350 PWs)   bands (ev):

   -45.4574  -3.9327  -3.8131  -3.4756  -3.3797  -3.2884  -3.1943  -2.9530
    -2.9063  -2.8379  -2.7752  -2.7037  -2.5241  -2.2909  -2.2717  -2.2245
    -2.1339  -1.9056  -1.8620  -1.6522  -1.6389  -1.6152  -1.5727  -1.4137
    -1.4042  -1.3643  -1.2272  -0.9444  -0.8718  -0.5432  -0.5395   0.3594
     0.3982   0.9831   1.0409   1.7419   2.3541   3.2609   4.0629   4.5874
     5.0656   7.3821

          k =-0.5000 0.1250 0.0000 ( 14406 PWs)   bands (ev):

   -45.4572  -3.7998  -3.6927  -3.4112  -3.3481  -3.2942  -3.1588  -3.0725
    -2.9441  -2.8791  -2.7984  -2.7116  -2.6018  -2.4717  -2.2212  -2.1904
    -2.0169  -1.8865  -1.7945  -1.7046  -1.6789  -1.5376  -1.4849  -1.4284
    -1.3974  -1.2925  -1.1717  -1.0614  -1.0246  -0.8646  -0.8375   0.6162
     0.6315   1.3640   1.4459   2.2698   2.7799   3.5942   4.2667   4.8601
     5.2347   7.5066

          k =-0.5000 0.2500 0.0000 ( 14414 PWs)   bands (ev):

   -45.4564  -3.6277  -3.5106  -3.4166  -3.3355  -3.3071  -3.2388  -3.1350
    -3.0736  -2.9555  -2.7583  -2.7383  -2.6798  -2.4124  -2.1904  -2.0315
    -1.9692  -1.9525  -1.7597  -1.7183  -1.6209  -1.5445  -1.4928  -1.3514
    -1.3470  -1.3182  -1.2238  -1.1663  -1.0603  -0.9684  -0.9238   1.2255
     1.2351   2.2045   2.2580   3.3182   3.6495   4.5878   4.8471   5.6963
     5.7248   7.9000

          k =-0.5000 0.3750 0.0000 ( 14356 PWs)   bands (ev):

   -45.4556  -3.7985  -3.6469  -3.3632  -3.3496  -3.3118  -3.2916  -3.1306
    -3.0636  -3.0466  -2.8670  -2.8509  -2.5896  -2.3573  -2.3004  -2.0989
    -1.8903  -1.8143  -1.6541  -1.5172  -1.4429  -1.4322  -1.3444  -1.2976
    -1.2373  -1.2279  -1.2070  -1.1619  -1.0360  -0.8677  -0.8032   2.0494
     2.0652   3.2560   3.2573   4.5174   4.6789   5.7633   5.7781   6.3363
     6.9745   7.1466

          k =-0.5000-0.5000 0.0000 ( 14372 PWs)   bands (ev):

   -45.4553  -3.8712  -3.7380  -3.3680  -3.3680  -3.3194  -3.2474  -3.2075
    -3.2075  -2.9480  -2.9480  -2.9136  -2.4910  -2.4287  -2.4287  -2.1350
    -1.6675  -1.6674  -1.4985  -1.4427  -1.3919  -1.3399  -1.2923  -1.2913
    -1.2311  -1.2104  -1.1842  -1.1288  -0.8601  -0.8262  -0.8262   2.6224
     2.6224   4.0208   4.0208   5.4821   5.5429   5.5429   6.0135   6.0924
     6.3213   6.7423

     the Fermi energy is     2.1726 ev

!    total energy              =    -520.50486183 Ry
     estimated scf accuracy    <       0.00000013 Ry
     smearing contrib. (-TS)   =      -0.00214105 Ry
     internal energy E=F+TS    =    -520.50272078 Ry

     The total energy is F=E-TS. E is the sum of the following terms:
     one-electron contribution =   -5468.96697031 Ry
     hartree contribution      =    2781.47200250 Ry
     xc contribution           =    -137.46895413 Ry
     ewald contribution        =    2304.63100510 Ry
     DFT-D3 Dispersion         =      -0.16980393 Ry

     convergence has been achieved in  11 iterations

     negative rho (up, down):  1.213E-05 0.000E+00

     Forces acting on atoms (cartesian axes, Ry/au):

     atom    1 type  2   force =     0.00000006   -0.00000018   -0.00078428
     atom    2 type  2   force =     0.00000008    0.00000072   -0.09401771
     atom    3 type  2   force =     0.00000000    0.00000090    0.00238553
     atom    4 type  2   force =    -0.00000113    0.00000079   -0.00735323
     atom    5 type  2   force =     0.00000212    0.00000029    0.00819948
     atom    6 type  2   force =     0.00000003    0.00000125   -0.00337694
     atom    7 type  1   force =    -0.00000117   -0.00000376    0.09494716
     The non-local contrib.  to forces
     atom    1 type  2   force =     0.00000156   -0.00000012    0.01180352
     atom    2 type  2   force =     0.00000283    0.00000107    0.22749380
     atom    3 type  2   force =     0.00000076    0.00000197    0.00210551
     atom    4 type  2   force =    -0.00000254    0.00000181   -0.00599128
     atom    5 type  2   force =     0.00000219    0.00000162   -0.14352798
     atom    6 type  2   force =     0.00000024    0.00000103    0.00020169
     atom    7 type  1   force =     0.00000529    0.00000438    0.06588668
     The ionic contribution  to forces
     atom    1 type  2   force =     0.00000920   -0.00002040   68.50951306
     atom    2 type  2   force =     0.00004108    0.00000922  111.89129395
     atom    3 type  2   force =     0.00000486   -0.00000097  -30.99235677
     atom    4 type  2   force =    -0.00005540    0.00001203   18.28945863
     atom    5 type  2   force =     0.00000001   -0.00000000 -124.72358849
     atom    6 type  2   force =    -0.00000018    0.00000004  -80.43213342
     atom    7 type  1   force =     0.00000043    0.00000009   37.45781305
     The local contribution  to forces
     atom    1 type  2   force =    -0.00001012    0.00001888  -68.52198320
     atom    2 type  2   force =    -0.00003913   -0.00000952 -112.22071700
     atom    3 type  2   force =    -0.00000590   -0.00000037   30.99062194
     atom    4 type  2   force =     0.00005412   -0.00001232  -18.29083428
     atom    5 type  2   force =    -0.00000131    0.00000171  124.86790383
     atom    6 type  2   force =     0.00000078   -0.00000192   80.42452560
     atom    7 type  1   force =    -0.00000620   -0.00000731  -37.42601685
     The core correction contribution to forces
     atom    1 type  2   force =     0.00000003   -0.00000000    0.00027965
     atom    2 type  2   force =    -0.00000009   -0.00000002    0.01050329
     atom    3 type  2   force =     0.00000000   -0.00000009    0.00029925
     atom    4 type  2   force =     0.00000009   -0.00000008    0.00077844
     atom    5 type  2   force =    -0.00000006    0.00000008    0.00546071
     atom    6 type  2   force =     0.00000007   -0.00000011    0.00084595
     atom    7 type  1   force =     0.00000000    0.00000000    0.00000000
     The Hubbard contrib.    to forces
     atom    1 type  2   force =     0.00000000    0.00000000    0.00000000
     atom    2 type  2   force =     0.00000000    0.00000000    0.00000000
     atom    3 type  2   force =     0.00000000    0.00000000    0.00000000
     atom    4 type  2   force =     0.00000000    0.00000000    0.00000000
     atom    5 type  2   force =     0.00000000    0.00000000    0.00000000
     atom    6 type  2   force =     0.00000000    0.00000000    0.00000000
     atom    7 type  1   force =     0.00000000    0.00000000    0.00000000
     The SCF correction term to forces
     atom    1 type  2   force =    -0.00000105    0.00000230    0.00106215
     atom    2 type  2   force =    -0.00000498    0.00000084   -0.00021216
     atom    3 type  2   force =    -0.00000020    0.00000122   -0.00040748
     atom    4 type  2   force =     0.00000201    0.00000022   -0.00000408
     atom    5 type  2   force =     0.00000082   -0.00000226   -0.00001187
     atom    6 type  2   force =    -0.00000136    0.00000307   -0.00013834
     atom    7 type  1   force =    -0.00000117   -0.00000005    0.00005538

     DFT-D3 dispersion contribution to forces:
     atom    1 type  2   force =    -0.00000004    0.00000003   -0.00146191
     atom    2 type  2   force =    -0.00000010   -0.00000001   -0.00238203
     atom    3 type  2   force =     0.00000002   -0.00000000    0.00212062
     atom    4 type  2   force =     0.00000012   -0.00000002   -0.00076310
     atom    5 type  2   force =    -0.00000000    0.00000000    0.00196084
     atom    6 type  2   force =     0.00000000   -0.00000000    0.00331913
     atom    7 type  1   force =     0.00000000    0.00000000   -0.00279354

     Total force =     0.134139     Total SCF correction =     0.001167


     Computing stress (Cartesian axis) and pressure


     negative rho (up, down):  1.213E-05 0.000E+00
          total   stress  (Ry/bohr**3)                   (kbar)     P=      -13.28
  -0.00018205   0.00000000   0.00000000          -26.78        0.00        0.00
   0.00000000  -0.00018205   0.00000000            0.00      -26.78        0.00
   0.00000000   0.00000000   0.00009319            0.00        0.00       13.71


     BFGS Geometry Optimization
     Energy error            =      0.0E+00 Ry
     Gradient error          =      9.5E-02 Ry/Bohr

     number of scf cycles    =   1
     number of bfgs steps    =   0

     energy             new  =    -520.5048618304 Ry

     new trust radius        =       0.0949471591 bohr
     new conv_thr            =       0.0000010000 Ry


ATOMIC_POSITIONS (angstrom)
Ag            2.4834647715        2.4834839701       16.5945844743
Ag            0.8277989379        0.8278283950       18.1281849806
Ag            2.4834810039        2.4834814782       13.3125703689
Ag            0.8278264042        0.8278274180       14.9630708429
Ag            2.4834821237        2.4834811530       10.0043389781
Ag            0.8278270167        0.8278276600       11.6538670013
Li            0.8277982767        0.8278260230       20.2281808842



     Writing config-only to output data dir ./Ag_mp-2646971_100_ontop_0/Ag_mp-2646971_100_ontop_0.save/
     NEW-OLD atomic charge density approx. for the potential

     negative rho (up, down):  1.451E-05 0.000E+00

     total cpu time spent up to now is       13.7 secs

     per-process dynamical memory:   183.7 Mb

     Self-consistent Calculation

     iteration #  1     ecut=    55.00 Ry     beta= 0.30
     Davidson diagonalization with overlap
     ethr =  1.00E-06,  avg # of iterations =  7.6

     negative rho (up, down):  1.310E-05 0.000E+00

     total cpu time spent up to now is       14.9 secs

     total energy              =    -520.51939689 Ry
     estimated scf accuracy    <       0.00059933 Ry

     iteration #  2     ecut=    55.00 Ry     beta= 0.30
     Davidson diagonalization with overlap
     ethr =  8.69E-07,  avg # of iterations =  2.0

     negative rho (up, down):  1.405E-05 0.000E+00

     total cpu time spent up to now is       15.3 secs

     total energy              =    -520.51927921 Ry
     estimated scf accuracy    <       0.00159053 Ry

     iteration #  3     ecut=    55.00 Ry     beta= 0.30
     Davidson diagonalization with overlap
     ethr =  8.69E-07,  avg # of iterations =  2.8

     negative rho (up, down):  1.267E-05 0.000E+00

     total cpu time spent up to now is       15.7 secs

     total energy              =    -520.51933807 Ry
     estimated scf accuracy    <       0.00416328 Ry

     iteration #  4     ecut=    55.00 Ry     beta= 0.30
     Davidson diagonalization with overlap
     ethr =  8.69E-07,  avg # of iterations =  1.2

     negative rho (up, down):  1.293E-05 0.000E+00

     total cpu time spent up to now is       16.1 secs

     total energy              =    -520.51945999 Ry
     estimated scf accuracy    <       0.00007368 Ry

     iteration #  5     ecut=    55.00 Ry     beta= 0.30
     Davidson diagonalization with overlap
     ethr =  1.07E-07,  avg # of iterations =  1.4

     negative rho (up, down):  1.188E-05 0.000E+00

     total cpu time spent up to now is       16.5 secs

     total energy              =    -520.51946777 Ry
     estimated scf accuracy    <       0.00006151 Ry

     iteration #  6     ecut=    55.00 Ry     beta= 0.30
     Davidson diagonalization with overlap
     ethr =  8.91E-08,  avg # of iterations =  1.0

     negative rho (up, down):  1.166E-05 0.000E+00

     total cpu time spent up to now is       16.8 secs

     total energy              =    -520.51947232 Ry
     estimated scf accuracy    <       0.00000395 Ry

     iteration #  7     ecut=    55.00 Ry     beta= 0.30
     Davidson diagonalization with overlap
     ethr =  5.72E-09,  avg # of iterations =  2.1

     negative rho (up, down):  1.140E-05 0.000E+00

     total cpu time spent up to now is       17.2 secs

     End of self-consistent calculation

          k = 0.0000 0.0000 0.0000 ( 14575 PWs)   bands (ev):

   -45.4315  -5.0014  -4.0943  -3.8649  -3.7709  -3.4580  -3.3756  -3.0819
    -2.8965  -2.6598  -2.6598  -2.6219  -2.6204  -2.5047  -2.5047  -2.2727
    -2.2700  -2.2551  -2.2551  -1.8317  -1.8111  -1.8111  -1.7530  -1.7511
    -1.4491  -1.3366  -1.2724  -1.2724  -1.2600  -0.9367  -0.9033  -0.8186
    -0.8186  -0.7069   0.2784   1.4940   2.7923   4.5390   5.4139   5.8773
     6.7548   6.9118

          k = 0.0000 0.1250 0.0000 ( 14507 PWs)   bands (ev):

   -45.4310  -4.7744  -3.9593  -3.7654  -3.6669  -3.4255  -3.2751  -3.1864
    -2.8699  -2.8196  -2.7289  -2.6619  -2.6065  -2.4923  -2.4797  -2.4602
    -2.2533  -2.0994  -2.0326  -1.9684  -1.7808  -1.6960  -1.6733  -1.5730
    -1.5072  -1.4506  -1.3504  -1.2851  -1.0622  -1.0284  -0.9656  -0.8606
    -0.7461  -0.6980   0.4738   1.7123   3.0382   4.7977   5.6311   6.0983
     6.9654   7.1612

          k = 0.0000 0.2500 0.0000 ( 14429 PWs)   bands (ev):

   -45.4301  -4.1987  -3.7895  -3.5614  -3.4449  -3.4261  -3.3571  -3.0653
    -2.9600  -2.9502  -2.8656  -2.6560  -2.5987  -2.5872  -2.3659  -2.1589
    -2.1509  -2.0520  -1.8619  -1.7573  -1.7213  -1.6258  -1.5613  -1.5563
    -1.4972  -1.4604  -1.4433  -1.2235  -1.2080  -1.0457  -0.9314  -0.6531
    -0.6345  -0.5624   1.0509   2.3209   3.6832   4.9229   5.4652   5.8362
     6.2123   6.7179

          k = 0.0000 0.3750 0.0000 ( 14361 PWs)   bands (ev):

   -45.4292  -3.9280  -3.7745  -3.5563  -3.3748  -3.2524  -3.1737  -3.1508
    -3.0658  -2.8070  -2.8000  -2.7269  -2.6056  -2.4110  -2.2502  -2.0999
    -2.0920  -1.9136  -1.8075  -1.7514  -1.6344  -1.5656  -1.5621  -1.5042
    -1.4202  -1.3751  -1.3228  -0.9538  -0.9071  -0.8720  -0.6293  -0.5932
    -0.5597   0.4347   1.9173   2.3881   3.1537   3.5083   4.1395   4.8775
     5.6714   7.0631

          k = 0.0000-0.5000 0.0000 ( 14350 PWs)   bands (ev):

   -45.4289  -3.9608  -3.8392  -3.4839  -3.4002  -3.3205  -3.2236  -2.9657
    -2.8709  -2.8499  -2.7980  -2.7030  -2.5438  -2.2974  -2.2079  -2.2000
    -2.1307  -1.9017  -1.8679  -1.6674  -1.6067  -1.5797  -1.5669  -1.4239
    -1.4164  -1.3564  -1.2406  -0.9357  -0.8552  -0.5527  -0.5435   0.3472
     0.3891   0.9850   1.0310   1.7657   2.3413   3.2286   3.9569   4.5719
     5.0317   7.3739

          k = 0.1250-0.0000 0.0000 ( 14507 PWs)   bands (ev):

   -45.4310  -4.7744  -3.9593  -3.7654  -3.6669  -3.4255  -3.2751  -3.1864
    -2.8699  -2.8196  -2.7289  -2.6619  -2.6065  -2.4923  -2.4797  -2.4602
    -2.2533  -2.0994  -2.0326  -1.9684  -1.7808  -1.6960  -1.6733  -1.5730
    -1.5072  -1.4506  -1.3504  -1.2851  -1.0622  -1.0284  -0.9656  -0.8606
    -0.7461  -0.6980   0.4738   1.7123   3.0382   4.7977   5.6311   6.0983
     6.9654   7.1612

          k = 0.1250 0.1250 0.0000 ( 14465 PWs)   bands (ev):

   -45.4306  -4.5572  -3.8138  -3.6580  -3.5723  -3.3175  -3.2447  -3.1516
    -2.9423  -2.9138  -2.7625  -2.7263  -2.6254  -2.5755  -2.4814  -2.4393
    -2.3226  -2.0567  -2.0109  -1.9200  -1.7250  -1.7221  -1.6274  -1.5911
    -1.4644  -1.4108  -1.3441  -1.2136  -1.1764  -1.0612  -0.8674  -0.7878
    -0.7869  -0.6765   0.7229   1.9423   3.2940   5.0552   5.8491   6.3171
     7.1809   7.4028

          k = 0.1250 0.2500 0.0000 ( 14449 PWs)   bands (ev):

   -45.4298  -4.0255  -3.6370  -3.4294  -3.3747  -3.3430  -3.2367  -3.1215
    -3.0056  -2.9193  -2.8360  -2.7481  -2.6967  -2.5683  -2.4708  -2.2984
    -2.2364  -2.0988  -1.9300  -1.7602  -1.7154  -1.6141  -1.5844  -1.5280
    -1.4977  -1.3254  -1.2950  -1.2475  -1.2085  -1.0493  -0.9199  -0.8119
    -0.7250  -0.0668   1.3835   2.5773   3.9687   5.2408   5.7317   6.0811
     6.4602   6.9375

          k = 0.1250 0.3750 0.0000 ( 14401 PWs)   bands (ev):

   -45.4290  -3.7866  -3.6570  -3.4659  -3.3149  -3.2482  -3.1611  -3.1332
    -3.0876  -2.8947  -2.8174  -2.6951  -2.6382  -2.4673  -2.3284  -2.1591
    -2.0758  -1.8947  -1.8779  -1.6777  -1.6697  -1.5749  -1.5141  -1.5076
    -1.4164  -1.3555  -1.2613  -1.1564  -1.0154  -0.8598  -0.7715  -0.7400
    -0.1640   0.9761   2.3196   2.6963   3.4818   3.7771   4.4494   5.1228
     5.8731   7.2212

          k = 0.1250-0.5000 0.0000 ( 14406 PWs)   bands (ev):

   -45.4287  -3.8234  -3.7186  -3.4174  -3.3770  -3.3130  -3.1848  -3.0870
    -2.9574  -2.8954  -2.7800  -2.7067  -2.5978  -2.4549  -2.1963  -2.1433
    -2.0251  -1.9057  -1.7768  -1.6987  -1.6665  -1.5407  -1.4465  -1.4412
    -1.4028  -1.3058  -1.1660  -1.0705  -1.0217  -0.8759  -0.8485   0.6079
     0.6247   1.3708   1.4386   2.2901   2.7690   3.5626   4.1707   4.8421
     5.1991   7.5500

          k = 0.1250-0.3750 0.0000 ( 14401 PWs)   bands (ev):

   -45.4290  -3.7866  -3.6570  -3.4659  -3.3149  -3.2482  -3.1611  -3.1332
    -3.0876  -2.8947  -2.8174  -2.6951  -2.6382  -2.4673  -2.3284  -2.1591
    -2.0758  -1.8947  -1.8779  -1.6777  -1.6697  -1.5749  -1.5141  -1.5076
    -1.4164  -1.3555  -1.2613  -1.1564  -1.0154  -0.8598  -0.7715  -0.7400
    -0.1640   0.9761   2.3196   2.6963   3.4818   3.7771   4.4494   5.1228
     5.8731   7.2212

          k = 0.1250-0.2500 0.0000 ( 14449 PWs)   bands (ev):

   -45.4298  -4.0255  -3.6370  -3.4294  -3.3747  -3.3430  -3.2367  -3.1215
    -3.0056  -2.9193  -2.8360  -2.7481  -2.6967  -2.5683  -2.4708  -2.2984
    -2.2364  -2.0988  -1.9300  -1.7602  -1.7154  -1.6141  -1.5844  -1.5280
    -1.4977  -1.3254  -1.2950  -1.2475  -1.2085  -1.0493  -0.9199  -0.8119
    -0.7250  -0.0668   1.3835   2.5773   3.9687   5.2408   5.7317   6.0811
     6.4602   6.9375

          k = 0.1250-0.1250 0.0000 ( 14465 PWs)   bands (ev):

   -45.4306  -4.5572  -3.8138  -3.6580  -3.5723  -3.3175  -3.2447  -3.1516
    -2.9423  -2.9138  -2.7625  -2.7263  -2.6254  -2.5755  -2.4814  -2.4393
    -2.3226  -2.0567  -2.0109  -1.9200  -1.7250  -1.7221  -1.6274  -1.5911
    -1.4644  -1.4108  -1.3441  -1.2136  -1.1764  -1.0612  -0.8674  -0.7878
    -0.7869  -0.6765   0.7229   1.9423   3.2940   5.0552   5.8491   6.3171
     7.1809   7.4029

          k = 0.2500-0.0000 0.0000 ( 14429 PWs)   bands (ev):

   -45.4301  -4.1987  -3.7895  -3.5614  -3.4449  -3.4261  -3.3571  -3.0653
    -2.9600  -2.9502  -2.8656  -2.6560  -2.5987  -2.5872  -2.3659  -2.1589
    -2.1509  -2.0520  -1.8619  -1.7573  -1.7213  -1.6258  -1.5613  -1.5563
    -1.4972  -1.4604  -1.4433  -1.2235  -1.2080  -1.0458  -0.9314  -0.6531
    -0.6345  -0.5624   1.0509   2.3209   3.6832   4.9229   5.4652   5.8362
     6.2123   6.7179

          k = 0.2500 0.1250 0.0000 ( 14449 PWs)   bands (ev):

   -45.4298  -4.0255  -3.6370  -3.4294  -3.3747  -3.3430  -3.2367  -3.1215
    -3.0057  -2.9193  -2.8360  -2.7481  -2.6967  -2.5683  -2.4708  -2.2984
    -2.2364  -2.0988  -1.9300  -1.7602  -1.7154  -1.6141  -1.5844  -1.5280
    -1.4977  -1.3254  -1.2950  -1.2475  -1.2085  -1.0493  -0.9199  -0.8119
    -0.7250  -0.0668   1.3835   2.5773   3.9687   5.2408   5.7317   6.0811
     6.4602   6.9375

          k = 0.2500 0.2500 0.0000 ( 14420 PWs)   bands (ev):

   -45.4290  -3.6988  -3.4401  -3.3442  -3.2938  -3.2183  -3.0380  -2.9699
    -2.9671  -2.9020  -2.9009  -2.8279  -2.8061  -2.7261  -2.3976  -2.3681
    -2.3640  -2.1009  -1.9915  -1.7740  -1.6721  -1.4867  -1.4841  -1.4813
    -1.4375  -1.3445  -1.3197  -1.2510  -1.1084  -1.1062  -0.9857  -0.7212
    -0.3869   0.8036   2.1625   3.2705   4.7141   5.5637   6.4162   6.4411
     6.7074   7.0121

          k = 0.2500 0.3750 0.0000 ( 14394 PWs)   bands (ev):

   -45.4282  -3.6318  -3.4865  -3.3987  -3.3088  -3.2409  -3.2170  -3.0509
    -3.0443  -2.9414  -2.7705  -2.7244  -2.6669  -2.5138  -2.3341  -2.2240
    -2.0992  -1.9667  -1.8879  -1.7028  -1.6075  -1.5299  -1.4990  -1.4057
    -1.3590  -1.3498  -1.2522  -1.1891  -1.1103  -1.0691  -0.7634  -0.4000
     0.6525   1.9483   3.1962   3.3979   4.2499   4.4682   5.3318   5.7871
     6.4849   7.5310

          k = 0.2500-0.5000 0.0000 ( 14414 PWs)   bands (ev):

   -45.4280  -3.6526  -3.5103  -3.4378  -3.3577  -3.3239  -3.2508  -3.1434
    -3.0778  -2.9715  -2.7651  -2.7158  -2.6319  -2.4178  -2.1780  -2.0413
    -1.9519  -1.9257  -1.7519  -1.7023  -1.6143  -1.5478  -1.5184  -1.3649
    -1.3608  -1.3155  -1.2281  -1.1729  -1.0713  -0.9773  -0.9356   1.2194
     1.2315   2.2157   2.2549   3.3280   3.6388   4.5569   4.7755   5.6746
     5.6812   7.8831

          k = 0.2500-0.3750 0.0000 ( 14394 PWs)   bands (ev):

   -45.4282  -3.6318  -3.4865  -3.3987  -3.3088  -3.2409  -3.2170  -3.0509
    -3.0443  -2.9414  -2.7705  -2.7244  -2.6669  -2.5138  -2.3341  -2.2240
    -2.0992  -1.9667  -1.8879  -1.7028  -1.6075  -1.5299  -1.4990  -1.4057
    -1.3590  -1.3498  -1.2522  -1.1891  -1.1103  -1.0691  -0.7634  -0.4000
     0.6525   1.9483   3.1962   3.3979   4.2499   4.4682   5.3318   5.7871
     6.4848   7.5310

          k = 0.2500-0.2500 0.0000 ( 14420 PWs)   bands (ev):

   -45.4290  -3.6988  -3.4401  -3.3442  -3.2938  -3.2183  -3.0380  -2.9699
    -2.9671  -2.9020  -2.9009  -2.8279  -2.8061  -2.7261  -2.3976  -2.3681
    -2.3640  -2.1009  -1.9915  -1.7740  -1.6721  -1.4867  -1.4841  -1.4813
    -1.4375  -1.3445  -1.3197  -1.2510  -1.1084  -1.1062  -0.9857  -0.7212
    -0.3869   0.8036   2.1625   3.2705   4.7141   5.5637   6.4162   6.4411
     6.7074   7.0121

          k = 0.2500-0.1250 0.0000 ( 14449 PWs)   bands (ev):

   -45.4298  -4.0255  -3.6370  -3.4294  -3.3747  -3.3430  -3.2367  -3.1215
    -3.0057  -2.9193  -2.8360  -2.7481  -2.6967  -2.5683  -2.4708  -2.2984
    -2.2364  -2.0988  -1.9300  -1.7602  -1.7154  -1.6141  -1.5844  -1.5280
    -1.4977  -1.3254  -1.2950  -1.2475  -1.2085  -1.0493  -0.9199  -0.8119
    -0.7250  -0.0668   1.3835   2.5773   3.9687   5.2408   5.7317   6.0811
     6.4602   6.9375

          k = 0.3750-0.0000 0.0000 ( 14361 PWs)   bands (ev):

   -45.4292  -3.9280  -3.7745  -3.5563  -3.3748  -3.2524  -3.1737  -3.1508
    -3.0658  -2.8070  -2.8000  -2.7269  -2.6056  -2.4110  -2.2502  -2.0999
    -2.0920  -1.9136  -1.8075  -1.7514  -1.6344  -1.5656  -1.5621  -1.5042
    -1.4202  -1.3751  -1.3228  -0.9538  -0.9071  -0.8720  -0.6293  -0.5932
    -0.5597   0.4347   1.9173   2.3881   3.1537   3.5083   4.1395   4.8775
     5.6714   7.0632

          k = 0.3750 0.1250 0.0000 ( 14401 PWs)   bands (ev):

   -45.4290  -3.7866  -3.6570  -3.4659  -3.3149  -3.2482  -3.1611  -3.1332
    -3.0876  -2.8947  -2.8174  -2.6951  -2.6382  -2.4673  -2.3284  -2.1591
    -2.0758  -1.8947  -1.8779  -1.6777  -1.6697  -1.5749  -1.5141  -1.5076
    -1.4164  -1.3555  -1.2613  -1.1564  -1.0154  -0.8598  -0.7715  -0.7400
    -0.1640   0.9761   2.3196   2.6963   3.4818   3.7771   4.4494   5.1228
     5.8731   7.2213

          k = 0.3750 0.2500 0.0000 ( 14394 PWs)   bands (ev):

   -45.4282  -3.6318  -3.4865  -3.3987  -3.3088  -3.2409  -3.2170  -3.0509
    -3.0443  -2.9414  -2.7705  -2.7244  -2.6669  -2.5138  -2.3341  -2.2240
    -2.0992  -1.9667  -1.8879  -1.7028  -1.6075  -1.5299  -1.4990  -1.4057
    -1.3590  -1.3498  -1.2522  -1.1891  -1.1103  -1.0691  -0.7634  -0.4000
     0.6525   1.9483   3.1962   3.3979   4.2499   4.4682   5.3318   5.7871
     6.4848   7.5310

          k = 0.3750 0.3750 0.0000 ( 14360 PWs)   bands (ev):

   -45.4274  -3.7694  -3.5831  -3.3895  -3.3112  -3.2768  -3.2081  -3.1617
    -2.9572  -2.9543  -2.9126  -2.8086  -2.5565  -2.4182  -2.2762  -2.1061
    -2.0578  -1.9237  -1.8920  -1.5488  -1.4521  -1.3885  -1.3412  -1.3396
    -1.3102  -1.2954  -1.2375  -1.2121  -1.0852  -1.0503  -0.7076   0.5101
     1.7625   3.1299   3.5732   4.3292   4.7466   5.2830   6.0559   6.1647
     6.3786   6.9562

          k = 0.3750-0.5000 0.0000 ( 14356 PWs)   bands (ev):

   -45.4271  -3.8247  -3.6630  -3.3671  -3.3452  -3.3009  -3.2883  -3.1434
    -3.0767  -3.0455  -2.8659  -2.8340  -2.5830  -2.3655  -2.3068  -2.0507
    -1.8786  -1.8217  -1.6213  -1.5239  -1.4634  -1.4431  -1.3610  -1.3031
    -1.2489  -1.2411  -1.2194  -1.1742  -1.0478  -0.8727  -0.8135   2.0442
     2.0624   3.2599   3.2706   4.5144   4.6633   5.7112   5.7395   6.2833
     6.9488   7.1270

          k = 0.3750-0.3750 0.0000 ( 14360 PWs)   bands (ev):

   -45.4274  -3.7694  -3.5831  -3.3895  -3.3112  -3.2768  -3.2081  -3.1617
    -2.9572  -2.9543  -2.9126  -2.8086  -2.5565  -2.4182  -2.2762  -2.1061
    -2.0578  -1.9237  -1.8920  -1.5488  -1.4521  -1.3885  -1.3412  -1.3396
    -1.3102  -1.2954  -1.2375  -1.2121  -1.0852  -1.0503  -0.7076   0.5101
     1.7625   3.1299   3.5732   4.3292   4.7466   5.2830   6.0559   6.1647
     6.3787   6.9561

          k = 0.3750-0.2500 0.0000 ( 14394 PWs)   bands (ev):

   -45.4282  -3.6318  -3.4865  -3.3987  -3.3088  -3.2409  -3.2170  -3.0509
    -3.0443  -2.9414  -2.7705  -2.7244  -2.6669  -2.5138  -2.3341  -2.2240
    -2.0992  -1.9667  -1.8879  -1.7028  -1.6075  -1.5299  -1.4990  -1.4057
    -1.3590  -1.3498  -1.2522  -1.1891  -1.1103  -1.0691  -0.7634  -0.4000
     0.6525   1.9483   3.1962   3.3979   4.2499   4.4682   5.3318   5.7871
     6.4848   7.5310

          k = 0.3750-0.1250 0.0000 ( 14401 PWs)   bands (ev):

   -45.4290  -3.7866  -3.6570  -3.4659  -3.3149  -3.2482  -3.1611  -3.1332
    -3.0876  -2.8947  -2.8174  -2.6951  -2.6382  -2.4673  -2.3284  -2.1591
    -2.0758  -1.8947  -1.8779  -1.6777  -1.6697  -1.5749  -1.5141  -1.5076
    -1.4164  -1.3555  -1.2613  -1.1564  -1.0154  -0.8598  -0.7715  -0.7400
    -0.1640   0.9761   2.3196   2.6963   3.4818   3.7771   4.4494   5.1228
     5.8731   7.2212

          k =-0.5000 0.0000 0.0000 ( 14350 PWs)   bands (ev):

   -45.4289  -3.9608  -3.8392  -3.4839  -3.4002  -3.3205  -3.2236  -2.9657
    -2.8709  -2.8499  -2.7980  -2.7030  -2.5438  -2.2974  -2.2079  -2.2000
    -2.1307  -1.9017  -1.8679  -1.6674  -1.6067  -1.5797  -1.5669  -1.4239
    -1.4164  -1.3564  -1.2406  -0.9357  -0.8552  -0.5527  -0.5435   0.3472
     0.3891   0.9850   1.0310   1.7657   2.3413   3.2286   3.9569   4.5719
     5.0317   7.3737

          k =-0.5000 0.1250 0.0000 ( 14406 PWs)   bands (ev):

   -45.4287  -3.8234  -3.7186  -3.4174  -3.3770  -3.3130  -3.1848  -3.0870
    -2.9574  -2.8954  -2.7800  -2.7067  -2.5978  -2.4549  -2.1963  -2.1433
    -2.0251  -1.9057  -1.7768  -1.6987  -1.6665  -1.5407  -1.4465  -1.4412
    -1.4028  -1.3058  -1.1660  -1.0705  -1.0217  -0.8759  -0.8485   0.6079
     0.6247   1.3708   1.4386   2.2901   2.7690   3.5626   4.1707   4.8421
     5.1991   7.4963

          k =-0.5000 0.2500 0.0000 ( 14414 PWs)   bands (ev):

   -45.4280  -3.6526  -3.5103  -3.4378  -3.3577  -3.3239  -3.2508  -3.1434
    -3.0778  -2.9715  -2.7651  -2.7158  -2.6319  -2.4178  -2.1780  -2.0413
    -1.9519  -1.9257  -1.7519  -1.7023  -1.6143  -1.5478  -1.5184  -1.3649
    -1.3608  -1.3155  -1.2281  -1.1729  -1.0713  -0.9773  -0.9356   1.2194
     1.2315   2.2157   2.2549   3.3280   3.6388   4.5569   4.7755   5.6746
     5.6812   7.8831

          k =-0.5000 0.3750 0.0000 ( 14356 PWs)   bands (ev):

   -45.4271  -3.8247  -3.6630  -3.3671  -3.3452  -3.3009  -3.2883  -3.1434
    -3.0767  -3.0455  -2.8659  -2.8340  -2.5830  -2.3655  -2.3068  -2.0507
    -1.8786  -1.8217  -1.6213  -1.5239  -1.4634  -1.4431  -1.3610  -1.3031
    -1.2489  -1.2411  -1.2194  -1.1742  -1.0478  -0.8727  -0.8135   2.0442
     2.0624   3.2599   3.2706   4.5144   4.6633   5.7112   5.7395   6.2834
     6.9487   7.1274

          k =-0.5000-0.5000 0.0000 ( 14372 PWs)   bands (ev):

   -45.4269  -3.8978  -3.7557  -3.3422  -3.3422  -3.3297  -3.2525  -3.2137
    -3.2137  -2.9529  -2.9529  -2.9012  -2.5051  -2.4312  -2.4312  -2.0670
    -1.6665  -1.6665  -1.4667  -1.4445  -1.4070  -1.3646  -1.3097  -1.3088
    -1.2461  -1.2243  -1.1983  -1.1418  -0.8735  -0.8329  -0.8329   2.6190
     2.6190   4.0374   4.0374   5.4490   5.5221   5.5221   6.0075   6.0676
     6.3266   6.7081

     the Fermi energy is     2.1652 ev

!    total energy              =    -520.51947256 Ry
     estimated scf accuracy    <       0.00000056 Ry
     smearing contrib. (-TS)   =      -0.00226302 Ry
     internal energy E=F+TS    =    -520.51720954 Ry

     The total energy is F=E-TS. E is the sum of the following terms:
     one-electron contribution =   -5485.06007986 Ry
     hartree contribution      =    2789.51584978 Ry
     xc contribution           =    -137.46165846 Ry
     ewald contribution        =    2312.65845667 Ry
     DFT-D3 Dispersion         =      -0.16977767 Ry

     convergence has been achieved in   7 iterations

     negative rho (up, down):  1.140E-05 0.000E+00

     Forces acting on atoms (cartesian axes, Ry/au):

     atom    1 type  2   force =    -0.00000044    0.00000012   -0.00535349
     atom    2 type  2   force =     0.00000066    0.00000517   -0.05738786
     atom    3 type  2   force =     0.00000039   -0.00000034    0.00176781
     atom    4 type  2   force =    -0.00000028   -0.00000115   -0.00706941
     atom    5 type  2   force =     0.00000053   -0.00000034    0.00760492
     atom    6 type  2   force =     0.00000123   -0.00000011   -0.00268758
     atom    7 type  1   force =    -0.00000208   -0.00000336    0.06312562
     The non-local contrib.  to forces
     atom    1 type  2   force =     0.00000003    0.00000154    0.00563355
     atom    2 type  2   force =    -0.00000137    0.00000569    0.18585900
     atom    3 type  2   force =    -0.00000005   -0.00000079    0.00178487
     atom    4 type  2   force =    -0.00000112   -0.00000034   -0.00538516
     atom    5 type  2   force =    -0.00000047    0.00000126   -0.14370252
     atom    6 type  2   force =     0.00000104    0.00000169    0.00150214
     atom    7 type  1   force =     0.00000386    0.00000385    0.06103982
     The ionic contribution  to forces
     atom    1 type  2   force =     0.00000277   -0.00001694   68.88308743
     atom    2 type  2   force =     0.00004463    0.00001006  112.46579697
     atom    3 type  2   force =     0.00000219   -0.00000021  -31.04813866
     atom    4 type  2   force =    -0.00004962    0.00001005   18.15318534
     atom    5 type  2   force =    -0.00000401    0.00000190 -124.85243225
     atom    6 type  2   force =     0.00000430   -0.00000261  -80.57477199
     atom    7 type  1   force =    -0.00000025   -0.00000224   36.97327316
     The local contribution  to forces
     atom    1 type  2   force =    -0.00000230    0.00001675  -68.89543506
     atom    2 type  2   force =    -0.00004480   -0.00001074 -112.71262141
     atom    3 type  2   force =    -0.00000200    0.00000033   31.04536441
     atom    4 type  2   force =     0.00004885   -0.00000898  -18.15561395
     atom    5 type  2   force =     0.00000388   -0.00000243  124.99676349
     atom    6 type  2   force =    -0.00000450    0.00000209   80.56763409
     atom    7 type  1   force =    -0.00000694   -0.00000414  -36.96810749
     The core correction contribution to forces
     atom    1 type  2   force =     0.00000008    0.00000002    0.00072092
     atom    2 type  2   force =    -0.00000015   -0.00000013    0.00634882
     atom    3 type  2   force =     0.00000003   -0.00000005    0.00038325
     atom    4 type  2   force =     0.00000014    0.00000002    0.00083303
     atom    5 type  2   force =     0.00000002   -0.00000004    0.00553650
     atom    6 type  2   force =    -0.00000000    0.00000000    0.00077514
     atom    7 type  1   force =     0.00000000    0.00000000    0.00000000
     The Hubbard contrib.    to forces
     atom    1 type  2   force =     0.00000000    0.00000000    0.00000000
     atom    2 type  2   force =     0.00000000    0.00000000    0.00000000
     atom    3 type  2   force =     0.00000000    0.00000000    0.00000000
     atom    4 type  2   force =     0.00000000    0.00000000    0.00000000
     atom    5 type  2   force =     0.00000000    0.00000000    0.00000000
     atom    6 type  2   force =     0.00000000    0.00000000    0.00000000
     atom    7 type  1   force =     0.00000000    0.00000000    0.00000000
     The SCF correction term to forces
     atom    1 type  2   force =    -0.00000177   -0.00000043    0.00199713
     atom    2 type  2   force =     0.00000167    0.00000112   -0.00016026
     atom    3 type  2   force =    -0.00000058    0.00000121    0.00020952
     atom    4 type  2   force =     0.00000056   -0.00000105    0.00066799
     atom    5 type  2   force =     0.00000032   -0.00000020   -0.00050505
     atom    6 type  2   force =    -0.00000039   -0.00000045   -0.00106725
     atom    7 type  1   force =     0.00000046   -0.00000000   -0.00002634

     DFT-D3 dispersion contribution to forces:
     atom    1 type  2   force =    -0.00000004    0.00000002   -0.00129615
     atom    2 type  2   force =    -0.00000010   -0.00000001   -0.00254968
     atom    3 type  2   force =     0.00000002   -0.00000000    0.00222573
     atom    4 type  2   force =     0.00000011   -0.00000002   -0.00069534
     atom    5 type  2   force =     0.00000001   -0.00000000    0.00200605
     atom    6 type  2   force =    -0.00000001    0.00000000    0.00330161
     atom    7 type  1   force =     0.00000000    0.00000001   -0.00299222

     Total force =     0.086169     Total SCF correction =     0.002429


     Computing stress (Cartesian axis) and pressure


     negative rho (up, down):  1.140E-05 0.000E+00
          total   stress  (Ry/bohr**3)                   (kbar)     P=      -14.16
  -0.00016975   0.00000000   0.00000000          -24.97        0.00        0.00
   0.00000000  -0.00016975   0.00000000            0.00      -24.97        0.00
   0.00000000   0.00000000   0.00005068            0.00        0.00        7.45

     Energy error            =      1.5E-02 Ry
     Gradient error          =      6.3E-02 Ry/Bohr

     number of scf cycles    =   2
     number of bfgs steps    =   1

     energy             old  =    -520.5048618304 Ry
     energy             new  =    -520.5194725568 Ry

     CASE: energy            _new < energy            _old

     new trust radius        =       0.1044418750 bohr
     new conv_thr            =       0.0000006313 Ry


ATOMIC_POSITIONS (angstrom)
Ag            2.4834643892        2.4834840752       16.5899443243
Ag            0.8277995083        0.8278328717       18.0778905043
Ag            2.4834813377        2.4834811902       13.3141163656
Ag            0.8278261504        0.8278264308       14.9569025795
Ag            2.4834825970        2.4834808591       10.0109763580
Ag            0.8278280842        0.8278275768       11.6515182543
Li            0.8277964680        0.8278230934       20.2834491442



     Writing config-only to output data dir ./Ag_mp-2646971_100_ontop_0/Ag_mp-2646971_100_ontop_0.save/
     NEW-OLD atomic charge density approx. for the potential

     negative rho (up, down):  1.531E-05 0.000E+00

     total cpu time spent up to now is       18.6 secs

     per-process dynamical memory:   212.4 Mb

     Self-consistent Calculation

     iteration #  1     ecut=    55.00 Ry     beta= 0.30
     Davidson diagonalization with overlap
     ethr =  1.00E-06,  avg # of iterations =  8.4

     negative rho (up, down):  1.368E-05 0.000E+00

     total cpu time spent up to now is       19.7 secs

     total energy              =    -520.52888468 Ry
     estimated scf accuracy    <       0.00068086 Ry

     iteration #  2     ecut=    55.00 Ry     beta= 0.30
     Davidson diagonalization with overlap
     ethr =  9.87E-07,  avg # of iterations =  2.0

     negative rho (up, down):  1.292E-05 0.000E+00

     total cpu time spent up to now is       20.1 secs

     total energy              =    -520.52891745 Ry
     estimated scf accuracy    <       0.00017859 Ry

     iteration #  3     ecut=    55.00 Ry     beta= 0.30
     Davidson diagonalization with overlap
     ethr =  2.59E-07,  avg # of iterations =  2.9

     negative rho (up, down):  1.481E-05 0.000E+00

     total cpu time spent up to now is       20.5 secs

     total energy              =    -520.52877873 Ry
     estimated scf accuracy    <       0.00577610 Ry

     iteration #  4     ecut=    55.00 Ry     beta= 0.30
     Davidson diagonalization with overlap
     ethr =  2.59E-07,  avg # of iterations =  1.7

     negative rho (up, down):  1.458E-05 0.000E+00

     total cpu time spent up to now is       20.9 secs

     total energy              =    -520.52896065 Ry
     estimated scf accuracy    <       0.00006283 Ry

     iteration #  5     ecut=    55.00 Ry     beta= 0.30
     Davidson diagonalization with overlap
     ethr =  9.11E-08,  avg # of iterations =  1.6

     negative rho (up, down):  1.328E-05 0.000E+00

     total cpu time spent up to now is       21.3 secs

     total energy              =    -520.52896367 Ry
     estimated scf accuracy    <       0.00009665 Ry

     iteration #  6     ecut=    55.00 Ry     beta= 0.30
     Davidson diagonalization with overlap
     ethr =  9.11E-08,  avg # of iterations =  1.1

     negative rho (up, down):  1.184E-05 0.000E+00

     total cpu time spent up to now is       21.7 secs

     total energy              =    -520.52897070 Ry
     estimated scf accuracy    <       0.00000521 Ry

     iteration #  7     ecut=    55.00 Ry     beta= 0.30
     Davidson diagonalization with overlap
     ethr =  7.55E-09,  avg # of iterations =  2.0

     negative rho (up, down):  1.233E-05 0.000E+00

     total cpu time spent up to now is       22.0 secs

     total energy              =    -520.52897123 Ry
     estimated scf accuracy    <       0.00000136 Ry

     iteration #  8     ecut=    55.00 Ry     beta= 0.30
     Davidson diagonalization with overlap
     ethr =  1.97E-09,  avg # of iterations =  2.5

     negative rho (up, down):  1.169E-05 0.000E+00

     total cpu time spent up to now is       22.5 secs

     End of self-consistent calculation

          k = 0.0000 0.0000 0.0000 ( 14575 PWs)   bands (ev):

   -45.4330  -5.0359  -4.1235  -3.9064  -3.7855  -3.4832  -3.3807  -3.0626
    -2.9110  -2.6692  -2.6430  -2.6430  -2.6380  -2.5080  -2.5080  -2.2977
    -2.2596  -2.2596  -2.2526  -1.8465  -1.8136  -1.8136  -1.7298  -1.7296
    -1.4501  -1.3215  -1.2752  -1.2752  -1.2698  -0.9140  -0.9043  -0.8285
    -0.8285  -0.7098   0.2763   1.4848   2.7779   4.5467   5.4204   5.8805
     6.7643   6.9153

          k = 0.0000 0.1250 0.0000 ( 14507 PWs)   bands (ev):

   -45.4325  -4.8089  -3.9886  -3.8052  -3.6833  -3.4458  -3.2908  -3.1807
    -2.8871  -2.8464  -2.7478  -2.6660  -2.5701  -2.4951  -2.4778  -2.4668
    -2.2532  -2.0999  -2.0494  -1.9760  -1.7732  -1.6781  -1.6627  -1.5727
    -1.4987  -1.4494  -1.3525  -1.2909  -1.0612  -1.0041  -0.9728  -0.8594
    -0.7536  -0.6993   0.4691   1.6976   3.0223   4.8000   5.6371   6.1003
     6.9742   7.1608

          k = 0.0000 0.2500 0.0000 ( 14429 PWs)   bands (ev):

   -45.4316  -4.2345  -3.8197  -3.5883  -3.4666  -3.4504  -3.3701  -3.0991
    -2.9873  -2.9634  -2.8692  -2.6764  -2.5982  -2.5340  -2.3688  -2.1587
    -2.1558  -2.0609  -1.8608  -1.7569  -1.6895  -1.6309  -1.5720  -1.5538
    -1.4816  -1.4435  -1.4302  -1.2291  -1.2186  -1.0374  -0.9189  -0.6542
    -0.6403  -0.5543   1.0403   2.2955   3.6617   4.9145   5.4571   5.8453
     6.2069   6.7107

          k = 0.0000 0.3750 0.0000 ( 14361 PWs)   bands (ev):

   -45.4307  -3.9645  -3.8021  -3.5760  -3.3940  -3.2892  -3.1969  -3.1824
    -3.0672  -2.8223  -2.8200  -2.7508  -2.5695  -2.3947  -2.2605  -2.1048
    -2.0836  -1.8986  -1.7938  -1.7524  -1.6205  -1.5721  -1.5294  -1.5106
    -1.4003  -1.3809  -1.3255  -0.9451  -0.9118  -0.8526  -0.6372  -0.6014
    -0.5593   0.4431   1.9031   2.3780   3.1337   3.4828   4.1154   4.8735
     5.6007   7.0695

          k = 0.0000-0.5000 0.0000 ( 14350 PWs)   bands (ev):

   -45.4304  -3.9947  -3.8687  -3.4970  -3.4230  -3.3581  -3.2565  -2.9826
    -2.8657  -2.8511  -2.8224  -2.7122  -2.5677  -2.3115  -2.1717  -2.1513
    -2.1398  -1.8996  -1.8658  -1.6802  -1.5960  -1.5524  -1.5253  -1.4314
    -1.4284  -1.3508  -1.2532  -0.9210  -0.8378  -0.5590  -0.5437   0.3343
     0.3805   0.9872   1.0229   1.7917   2.3292   3.2074   3.8473   4.5639
     5.0042   7.3740

          k = 0.1250-0.0000 0.0000 ( 14507 PWs)   bands (ev):

   -45.4325  -4.8089  -3.9886  -3.8052  -3.6833  -3.4458  -3.2908  -3.1807
    -2.8871  -2.8464  -2.7479  -2.6660  -2.5701  -2.4951  -2.4778  -2.4668
    -2.2532  -2.0999  -2.0494  -1.9760  -1.7732  -1.6781  -1.6627  -1.5727
    -1.4987  -1.4494  -1.3525  -1.2909  -1.0612  -1.0041  -0.9728  -0.8594
    -0.7536  -0.6993   0.4691   1.6976   3.0223   4.8000   5.6371   6.1003
     6.9742   7.1608

          k = 0.1250 0.1250 0.0000 ( 14465 PWs)   bands (ev):

   -45.4321  -4.5919  -3.8420  -3.6986  -3.5885  -3.3401  -3.2610  -3.1549
    -2.9526  -2.9378  -2.7745  -2.7417  -2.6389  -2.5766  -2.4400  -2.4258
    -2.3228  -2.0679  -2.0217  -1.9289  -1.7142  -1.7131  -1.6242  -1.5720
    -1.4598  -1.4093  -1.3477  -1.2145  -1.1779  -1.0352  -0.8718  -0.7960
    -0.7902  -0.6720   0.7160   1.9238   3.2773   5.0535   5.8548   6.3184
     7.1889   7.3999

          k = 0.1250 0.2500 0.0000 ( 14449 PWs)   bands (ev):

   -45.4313  -4.0606  -3.6673  -3.4546  -3.3960  -3.3696  -3.2515  -3.1524
    -3.0249  -2.9242  -2.8456  -2.7617  -2.7062  -2.5738  -2.4360  -2.2867
    -2.2316  -2.0886  -1.9416  -1.7582  -1.7210  -1.5876  -1.5767  -1.5351
    -1.4871  -1.3109  -1.2871  -1.2587  -1.2101  -1.0373  -0.9205  -0.8134
    -0.7305  -0.0597   1.3705   2.5517   3.9478   5.2365   5.7212   6.0916
     6.4580   6.9303

          k = 0.1250 0.3750 0.0000 ( 14401 PWs)   bands (ev):

   -45.4305  -3.8196  -3.6853  -3.4863  -3.3456  -3.2650  -3.1864  -3.1527
    -3.1052  -2.9109  -2.8349  -2.7092  -2.5998  -2.4728  -2.3218  -2.1322
    -2.0849  -1.8932  -1.8586  -1.6881  -1.6639  -1.5544  -1.5211  -1.4943
    -1.3993  -1.3558  -1.2688  -1.1597  -1.0119  -0.8637  -0.7771  -0.7381
    -0.1647   0.9859   2.3004   2.6884   3.4611   3.7617   4.4264   5.1180
     5.8049   7.2245

          k = 0.1250-0.5000 0.0000 ( 14406 PWs)   bands (ev):

   -45.4302  -3.8539  -3.7476  -3.4292  -3.4116  -3.3340  -3.2142  -3.1034
    -2.9723  -2.9162  -2.7828  -2.7075  -2.6042  -2.4329  -2.1799  -2.0966
    -2.0395  -1.9248  -1.7657  -1.6907  -1.6513  -1.5363  -1.4518  -1.4280
    -1.3852  -1.3171  -1.1630  -1.0759  -1.0137  -0.8855  -0.8579   0.5997
     0.6182   1.3781   1.4337   2.3121   2.7602   3.5400   4.0710   4.8320
     5.1702   7.5527

          k = 0.1250-0.3750 0.0000 ( 14401 PWs)   bands (ev):

   -45.4305  -3.8196  -3.6853  -3.4863  -3.3456  -3.2650  -3.1864  -3.1527
    -3.1052  -2.9109  -2.8349  -2.7092  -2.5998  -2.4728  -2.3218  -2.1322
    -2.0849  -1.8932  -1.8586  -1.6881  -1.6639  -1.5544  -1.5211  -1.4943
    -1.3993  -1.3558  -1.2688  -1.1597  -1.0119  -0.8637  -0.7771  -0.7381
    -0.1647   0.9859   2.3004   2.6884   3.4611   3.7617   4.4264   5.1180
     5.8049   7.2245

          k = 0.1250-0.2500 0.0000 ( 14449 PWs)   bands (ev):

   -45.4313  -4.0606  -3.6673  -3.4546  -3.3960  -3.3696  -3.2515  -3.1524
    -3.0249  -2.9242  -2.8456  -2.7617  -2.7062  -2.5738  -2.4360  -2.2867
    -2.2316  -2.0886  -1.9416  -1.7582  -1.7210  -1.5876  -1.5767  -1.5351
    -1.4871  -1.3109  -1.2871  -1.2587  -1.2101  -1.0373  -0.9205  -0.8134
    -0.7305  -0.0597   1.3705   2.5517   3.9478   5.2365   5.7212   6.0916
     6.4580   6.9303

          k = 0.1250-0.1250 0.0000 ( 14465 PWs)   bands (ev):

   -45.4321  -4.5919  -3.8420  -3.6986  -3.5885  -3.3401  -3.2610  -3.1549
    -2.9526  -2.9378  -2.7745  -2.7417  -2.6389  -2.5766  -2.4400  -2.4258
    -2.3228  -2.0679  -2.0217  -1.9289  -1.7142  -1.7131  -1.6242  -1.5720
    -1.4598  -1.4093  -1.3477  -1.2145  -1.1779  -1.0352  -0.8718  -0.7960
    -0.7902  -0.6720   0.7160   1.9238   3.2773   5.0535   5.8548   6.3184
     7.1889   7.3999

          k = 0.2500-0.0000 0.0000 ( 14429 PWs)   bands (ev):

   -45.4316  -4.2345  -3.8198  -3.5883  -3.4666  -3.4504  -3.3701  -3.0991
    -2.9873  -2.9634  -2.8692  -2.6764  -2.5982  -2.5340  -2.3688  -2.1587
    -2.1558  -2.0609  -1.8608  -1.7569  -1.6895  -1.6309  -1.5720  -1.5538
    -1.4816  -1.4435  -1.4302  -1.2291  -1.2186  -1.0374  -0.9189  -0.6542
    -0.6403  -0.5543   1.0403   2.2955   3.6617   4.9145   5.4571   5.8453
     6.2069   6.7107

          k = 0.2500 0.1250 0.0000 ( 14449 PWs)   bands (ev):

   -45.4313  -4.0606  -3.6673  -3.4546  -3.3960  -3.3696  -3.2515  -3.1524
    -3.0249  -2.9242  -2.8456  -2.7617  -2.7062  -2.5738  -2.4360  -2.2867
    -2.2316  -2.0886  -1.9416  -1.7582  -1.7210  -1.5876  -1.5767  -1.5351
    -1.4871  -1.3109  -1.2871  -1.2587  -1.2101  -1.0373  -0.9205  -0.8134
    -0.7305  -0.0597   1.3705   2.5517   3.9478   5.2365   5.7212   6.0916
     6.4580   6.9303

          k = 0.2500 0.2500 0.0000 ( 14420 PWs)   bands (ev):

   -45.4305  -3.7311  -3.4718  -3.3627  -3.3196  -3.2323  -3.0544  -2.9923
    -2.9819  -2.9121  -2.9082  -2.8540  -2.8012  -2.7468  -2.3905  -2.3732
    -2.3048  -2.0866  -2.0071  -1.7533  -1.6884  -1.4855  -1.4699  -1.4669
    -1.4547  -1.3294  -1.3214  -1.2535  -1.1062  -1.1043  -0.9846  -0.7297
    -0.3877   0.8132   2.1409   3.2459   4.6921   5.5748   6.3988   6.4535
     6.7084   7.0056

          k = 0.2500 0.3750 0.0000 ( 14394 PWs)   bands (ev):

   -45.4297  -3.6615  -3.5061  -3.4257  -3.3270  -3.2601  -3.2238  -3.0632
    -3.0536  -2.9616  -2.7814  -2.7060  -2.6710  -2.5167  -2.3284  -2.2258
    -2.0831  -1.9508  -1.8783  -1.7188  -1.5901  -1.5336  -1.4875  -1.4159
    -1.3754  -1.3443  -1.2526  -1.1983  -1.1165  -1.0702  -0.7725  -0.3992
     0.6556   1.9576   3.1659   3.3933   4.2341   4.4672   5.3095   5.7737
     6.4302   7.5310

          k = 0.2500-0.5000 0.0000 ( 14414 PWs)   bands (ev):

   -45.4295  -3.6802  -3.5236  -3.4604  -3.3840  -3.3429  -3.2664  -3.1527
    -3.0843  -2.9903  -2.7827  -2.6991  -2.5903  -2.4250  -2.1718  -2.0532
    -1.9495  -1.8992  -1.7563  -1.6736  -1.6045  -1.5447  -1.5423  -1.3770
    -1.3722  -1.3184  -1.2292  -1.1771  -1.0823  -0.9839  -0.9465   1.2138
     1.2277   2.2280   2.2549   3.3377   3.6318   4.5298   4.7019   5.6468
     5.6603   7.8740

          k = 0.2500-0.3750 0.0000 ( 14394 PWs)   bands (ev):

   -45.4297  -3.6615  -3.5061  -3.4257  -3.3270  -3.2601  -3.2238  -3.0632
    -3.0536  -2.9616  -2.7814  -2.7060  -2.6710  -2.5167  -2.3284  -2.2258
    -2.0831  -1.9508  -1.8783  -1.7188  -1.5901  -1.5336  -1.4875  -1.4159
    -1.3754  -1.3443  -1.2526  -1.1983  -1.1165  -1.0702  -0.7725  -0.3992
     0.6556   1.9576   3.1659   3.3933   4.2341   4.4672   5.3095   5.7737
     6.4302   7.5310

          k = 0.2500-0.2500 0.0000 ( 14420 PWs)   bands (ev):

   -45.4305  -3.7311  -3.4718  -3.3627  -3.3196  -3.2323  -3.0544  -2.9923
    -2.9819  -2.9121  -2.9082  -2.8540  -2.8012  -2.7468  -2.3905  -2.3732
    -2.3048  -2.0866  -2.0071  -1.7533  -1.6884  -1.4855  -1.4699  -1.4669
    -1.4547  -1.3294  -1.3214  -1.2535  -1.1062  -1.1043  -0.9846  -0.7297
    -0.3877   0.8132   2.1409   3.2459   4.6921   5.5748   6.3988   6.4535
     6.7084   7.0056

          k = 0.2500-0.1250 0.0000 ( 14449 PWs)   bands (ev):

   -45.4313  -4.0606  -3.6673  -3.4546  -3.3960  -3.3696  -3.2515  -3.1524
    -3.0249  -2.9242  -2.8456  -2.7617  -2.7062  -2.5738  -2.4360  -2.2867
    -2.2316  -2.0886  -1.9416  -1.7582  -1.7210  -1.5876  -1.5767  -1.5351
    -1.4871  -1.3109  -1.2871  -1.2587  -1.2101  -1.0373  -0.9205  -0.8134
    -0.7305  -0.0597   1.3705   2.5517   3.9478   5.2365   5.7212   6.0916
     6.4580   6.9303

          k = 0.3750-0.0000 0.0000 ( 14361 PWs)   bands (ev):

   -45.4307  -3.9645  -3.8021  -3.5760  -3.3940  -3.2892  -3.1969  -3.1824
    -3.0672  -2.8223  -2.8200  -2.7508  -2.5695  -2.3947  -2.2605  -2.1048
    -2.0836  -1.8986  -1.7938  -1.7524  -1.6205  -1.5721  -1.5294  -1.5106
    -1.4003  -1.3809  -1.3255  -0.9451  -0.9118  -0.8526  -0.6372  -0.6014
    -0.5593   0.4431   1.9031   2.3780   3.1337   3.4828   4.1154   4.8735
     5.6007   7.0695

          k = 0.3750 0.1250 0.0000 ( 14401 PWs)   bands (ev):

   -45.4305  -3.8196  -3.6853  -3.4863  -3.3456  -3.2650  -3.1864  -3.1527
    -3.1052  -2.9109  -2.8349  -2.7092  -2.5998  -2.4728  -2.3218  -2.1322
    -2.0849  -1.8932  -1.8586  -1.6881  -1.6639  -1.5544  -1.5211  -1.4943
    -1.3993  -1.3558  -1.2688  -1.1597  -1.0119  -0.8637  -0.7771  -0.7381
    -0.1647   0.9859   2.3004   2.6884   3.4611   3.7617   4.4264   5.1180
     5.8049   7.2245

          k = 0.3750 0.2500 0.0000 ( 14394 PWs)   bands (ev):

   -45.4297  -3.6615  -3.5061  -3.4257  -3.3270  -3.2601  -3.2238  -3.0632
    -3.0536  -2.9616  -2.7814  -2.7060  -2.6710  -2.5167  -2.3284  -2.2258
    -2.0831  -1.9508  -1.8783  -1.7188  -1.5901  -1.5336  -1.4875  -1.4159
    -1.3754  -1.3443  -1.2526  -1.1983  -1.1165  -1.0702  -0.7725  -0.3992
     0.6556   1.9576   3.1659   3.3933   4.2341   4.4672   5.3095   5.7737
     6.4302   7.5310

          k = 0.3750 0.3750 0.0000 ( 14360 PWs)   bands (ev):

   -45.4289  -3.7979  -3.6018  -3.4113  -3.3203  -3.2622  -3.2199  -3.1732
    -2.9662  -2.9657  -2.9102  -2.7895  -2.5705  -2.4182  -2.2862  -2.1205
    -2.0538  -1.8935  -1.8614  -1.5663  -1.4589  -1.3874  -1.3555  -1.3474
    -1.3202  -1.3033  -1.2450  -1.2229  -1.0875  -1.0579  -0.7160   0.5070
     1.7688   3.1341   3.5736   4.2853   4.7667   5.2580   6.0203   6.1599
     6.3698   6.9271

          k = 0.3750-0.5000 0.0000 ( 14356 PWs)   bands (ev):

   -45.4286  -3.8522  -3.6828  -3.3863  -3.3480  -3.3028  -3.2745  -3.1556
    -3.0922  -3.0482  -2.8706  -2.8178  -2.5798  -2.3758  -2.3161  -2.0148
    -1.8667  -1.8333  -1.5938  -1.5359  -1.4820  -1.4498  -1.3763  -1.3098
    -1.2598  -1.2530  -1.2304  -1.1860  -1.0603  -0.8765  -0.8231   2.0393
     2.0591   3.2668   3.2854   4.5092   4.6494   5.6588   5.7019   6.2445
     6.9281   7.1113

          k = 0.3750-0.3750 0.0000 ( 14360 PWs)   bands (ev):

   -45.4289  -3.7979  -3.6018  -3.4113  -3.3203  -3.2622  -3.2199  -3.1732
    -2.9662  -2.9657  -2.9102  -2.7895  -2.5705  -2.4182  -2.2862  -2.1205
    -2.0538  -1.8935  -1.8614  -1.5663  -1.4589  -1.3874  -1.3555  -1.3474
    -1.3202  -1.3033  -1.2450  -1.2229  -1.0875  -1.0579  -0.7160   0.5070
     1.7688   3.1341   3.5736   4.2853   4.7667   5.2580   6.0203   6.1599
     6.3699   6.9270

          k = 0.3750-0.2500 0.0000 ( 14394 PWs)   bands (ev):

   -45.4297  -3.6615  -3.5061  -3.4257  -3.3270  -3.2601  -3.2238  -3.0632
    -3.0536  -2.9616  -2.7814  -2.7060  -2.6710  -2.5167  -2.3284  -2.2258
    -2.0831  -1.9508  -1.8783  -1.7188  -1.5901  -1.5336  -1.4875  -1.4159
    -1.3754  -1.3443  -1.2526  -1.1983  -1.1165  -1.0702  -0.7725  -0.3992
     0.6556   1.9576   3.1659   3.3933   4.2341   4.4672   5.3095   5.7737
     6.4302   7.5310

          k = 0.3750-0.1250 0.0000 ( 14401 PWs)   bands (ev):

   -45.4305  -3.8196  -3.6853  -3.4863  -3.3456  -3.2650  -3.1864  -3.1527
    -3.1052  -2.9109  -2.8349  -2.7092  -2.5998  -2.4728  -2.3218  -2.1322
    -2.0849  -1.8932  -1.8586  -1.6881  -1.6639  -1.5544  -1.5211  -1.4943
    -1.3993  -1.3558  -1.2688  -1.1597  -1.0119  -0.8637  -0.7771  -0.7381
    -0.1647   0.9859   2.3004   2.6884   3.4611   3.7617   4.4264   5.1180
     5.8049   7.2245

          k =-0.5000 0.0000 0.0000 ( 14350 PWs)   bands (ev):

   -45.4304  -3.9947  -3.8687  -3.4970  -3.4230  -3.3581  -3.2565  -2.9826
    -2.8657  -2.8511  -2.8224  -2.7122  -2.5677  -2.3115  -2.1717  -2.1513
    -2.1398  -1.8996  -1.8658  -1.6802  -1.5960  -1.5524  -1.5253  -1.4314
    -1.4284  -1.3508  -1.2532  -0.9210  -0.8378  -0.5590  -0.5437   0.3343
     0.3805   0.9872   1.0229   1.7917   2.3292   3.2074   3.8473   4.5639
     5.0042   7.3738

          k =-0.5000 0.1250 0.0000 ( 14406 PWs)   bands (ev):

   -45.4302  -3.8539  -3.7476  -3.4292  -3.4116  -3.3340  -3.2142  -3.1034
    -2.9723  -2.9162  -2.7828  -2.7075  -2.6042  -2.4329  -2.1799  -2.0966
    -2.0395  -1.9248  -1.7657  -1.6907  -1.6513  -1.5363  -1.4518  -1.4280
    -1.3852  -1.3171  -1.1630  -1.0759  -1.0137  -0.8855  -0.8579   0.5997
     0.6182   1.3781   1.4337   2.3121   2.7602   3.5400   4.0710   4.8320
     5.1702   7.4944

          k =-0.5000 0.2500 0.0000 ( 14414 PWs)   bands (ev):

   -45.4295  -3.6802  -3.5236  -3.4604  -3.3840  -3.3429  -3.2664  -3.1527
    -3.0843  -2.9903  -2.7827  -2.6991  -2.5903  -2.4250  -2.1718  -2.0532
    -1.9495  -1.8992  -1.7563  -1.6736  -1.6045  -1.5447  -1.5423  -1.3770
    -1.3722  -1.3184  -1.2292  -1.1771  -1.0823  -0.9839  -0.9465   1.2138
     1.2277   2.2280   2.2549   3.3377   3.6318   4.5298   4.7019   5.6468
     5.6603   7.8740

          k =-0.5000 0.3750 0.0000 ( 14356 PWs)   bands (ev):

   -45.4286  -3.8522  -3.6828  -3.3863  -3.3480  -3.3028  -3.2745  -3.1556
    -3.0922  -3.0482  -2.8706  -2.8178  -2.5798  -2.3758  -2.3161  -2.0148
    -1.8667  -1.8333  -1.5938  -1.5359  -1.4820  -1.4498  -1.3763  -1.3098
    -1.2598  -1.2530  -1.2304  -1.1860  -1.0603  -0.8765  -0.8231   2.0393
     2.0591   3.2668   3.2854   4.5092   4.6494   5.6588   5.7019   6.2445
     6.9281   7.1117

[...]

   -45.5140  -4.1319  -3.6932  -3.5534  -3.5324  -3.4179  -3.1987  -3.1375
    -3.0505  -2.9874  -2.8950  -2.8047  -2.7434  -2.6279  -2.3089  -2.2205
    -2.1276  -2.0581  -1.9704  -1.8319  -1.7357  -1.5868  -1.5602  -1.5425
    -1.4787  -1.3203  -1.3012  -1.2775  -1.1979  -0.9836  -0.9107  -0.8195
    -0.7404  -0.0467   1.3401   2.4744   3.8945   5.2131   5.6526   6.1316
     6.4610   6.8977

          k = 0.1250-0.1250 0.0000 ( 14465 PWs)   bands (ev):

   -45.5148  -4.6898  -3.8588  -3.7441  -3.6896  -3.3803  -3.3733  -3.0465
    -2.9949  -2.9002  -2.7903  -2.7572  -2.7530  -2.6886  -2.3736  -2.2991
    -2.2062  -2.0977  -2.0432  -2.0062  -1.7177  -1.6616  -1.6327  -1.5544
    -1.4712  -1.4057  -1.4037  -1.2088  -1.1640  -1.0278  -0.8565  -0.8203
    -0.7940  -0.6486   0.7114   1.8576   3.2355   4.9798   5.8663   6.3191
     7.1889   7.4114

          k = 0.2500-0.0000 0.0000 ( 14429 PWs)   bands (ev):

   -45.5143  -4.3090  -3.8571  -3.6750  -3.6510  -3.4729  -3.2126  -3.1010
    -3.0895  -3.0869  -2.8690  -2.7311  -2.5913  -2.3910  -2.2984  -2.1660
    -2.1314  -2.0797  -1.8664  -1.8049  -1.7195  -1.6083  -1.5810  -1.5524
    -1.4506  -1.4277  -1.4175  -1.2728  -1.2411  -0.9987  -0.9326  -0.6596
    -0.6420  -0.5171   1.0267   2.2148   3.6067   4.8729   5.3950   5.8871
     6.1987   6.6811

          k = 0.2500 0.1250 0.0000 ( 14449 PWs)   bands (ev):

   -45.5140  -4.1319  -3.6932  -3.5534  -3.5324  -3.4179  -3.1987  -3.1375
    -3.0505  -2.9874  -2.8950  -2.8047  -2.7434  -2.6279  -2.3089  -2.2205
    -2.1276  -2.0581  -1.9704  -1.8319  -1.7357  -1.5868  -1.5602  -1.5425
    -1.4787  -1.3203  -1.3012  -1.2775  -1.1979  -0.9836  -0.9107  -0.8195
    -0.7404  -0.0467   1.3401   2.4744   3.8945   5.2131   5.6526   6.1316
     6.4610   6.8977

          k = 0.2500 0.2500 0.0000 ( 14420 PWs)   bands (ev):

   -45.5132  -3.7920  -3.4715  -3.4484  -3.4146  -3.1387  -3.0867  -3.0797
    -2.9975  -2.9743  -2.9525  -2.9074  -2.8992  -2.8307  -2.4243  -2.2353
    -2.0915  -2.0283  -2.0257  -1.7790  -1.6872  -1.5438  -1.4896  -1.4836
    -1.4636  -1.3363  -1.3293  -1.2436  -1.1042  -1.0626  -0.9621  -0.7499
    -0.3636   0.8240   2.0811   3.1760   4.6408   5.6169   6.3045   6.4845
     6.7148   6.9919

          k = 0.2500 0.3750 0.0000 ( 14394 PWs)   bands (ev):

   -45.5125  -3.6633  -3.5268  -3.5225  -3.4204  -3.3443  -3.2421  -3.0689
    -3.0218  -2.9881  -2.8854  -2.7402  -2.5950  -2.5320  -2.3820  -2.1415
    -2.0309  -1.9819  -1.8045  -1.6980  -1.5788  -1.5458  -1.4808  -1.4438
    -1.4162  -1.3512  -1.2599  -1.2237  -1.1282  -1.0675  -0.7946  -0.3900
     0.6967   1.9680   3.0885   3.3804   4.1775   4.5029   5.2482   5.7524
     6.2975   7.4930

          k = 0.2500-0.5000 0.0000 ( 14414 PWs)   bands (ev):

   -45.5122  -3.6262  -3.5988  -3.5225  -3.5025  -3.4053  -3.3726  -3.0808
    -3.0582  -3.0257  -2.9195  -2.6385  -2.5678  -2.3248  -2.1695  -2.0292
    -1.9551  -1.9070  -1.8709  -1.6089  -1.5644  -1.4906  -1.4749  -1.4067
    -1.3861  -1.3755  -1.2242  -1.2171  -1.1322  -1.0009  -0.9787   1.2090
     1.2167   2.2899   2.2914   3.3397   3.6127   4.4704   4.5036   5.5551
     5.6687   7.9112

          k = 0.2500-0.3750 0.0000 ( 14394 PWs)   bands (ev):

   -45.5125  -3.6633  -3.5268  -3.5225  -3.4204  -3.3443  -3.2421  -3.0689
    -3.0218  -2.9881  -2.8854  -2.7402  -2.5950  -2.5320  -2.3820  -2.1415
    -2.0309  -1.9819  -1.8045  -1.6980  -1.5788  -1.5458  -1.4808  -1.4438
    -1.4162  -1.3512  -1.2599  -1.2237  -1.1282  -1.0675  -0.7946  -0.3900
     0.6967   1.9680   3.0885   3.3804   4.1775   4.5029   5.2482   5.7524
     6.2975   7.4930

          k = 0.2500-0.2500 0.0000 ( 14420 PWs)   bands (ev):

   -45.5132  -3.7920  -3.4715  -3.4484  -3.4146  -3.1387  -3.0867  -3.0797
    -2.9975  -2.9743  -2.9525  -2.9074  -2.8992  -2.8307  -2.4243  -2.2353
    -2.0915  -2.0283  -2.0257  -1.7790  -1.6872  -1.5438  -1.4896  -1.4836
    -1.4636  -1.3363  -1.3293  -1.2436  -1.1042  -1.0626  -0.9621  -0.7499
    -0.3636   0.8240   2.0811   3.1760   4.6408   5.6169   6.3045   6.4845
     6.7148   6.9919

          k = 0.2500-0.1250 0.0000 ( 14449 PWs)   bands (ev):

   -45.5140  -4.1319  -3.6932  -3.5534  -3.5324  -3.4179  -3.1987  -3.1375
    -3.0505  -2.9874  -2.8950  -2.8047  -2.7434  -2.6279  -2.3089  -2.2205
    -2.1276  -2.0581  -1.9704  -1.8319  -1.7357  -1.5868  -1.5602  -1.5425
    -1.4787  -1.3203  -1.3012  -1.2775  -1.1979  -0.9836  -0.9107  -0.8195
    -0.7404  -0.0467   1.3401   2.4744   3.8945   5.2131   5.6526   6.1316
     6.4610   6.8977

          k = 0.3750-0.0000 0.0000 ( 14361 PWs)   bands (ev):

   -45.5134  -3.9441  -3.9164  -3.6682  -3.4982  -3.2958  -3.2822  -3.0888
    -3.0638  -2.9734  -2.8657  -2.7676  -2.4758  -2.3153  -2.2487  -2.1517
    -2.1213  -1.8950  -1.7652  -1.7390  -1.6570  -1.5498  -1.5183  -1.5130
    -1.4179  -1.3726  -1.3064  -0.9205  -0.8997  -0.8537  -0.6498  -0.6001
    -0.5559   0.4641   1.8824   2.3414   3.0516   3.4557   4.0397   4.9039
     5.4113   7.0612

          k = 0.3750 0.1250 0.0000 ( 14401 PWs)   bands (ev):

   -45.5132  -3.7986  -3.7819  -3.5909  -3.3873  -3.2890  -3.2720  -3.1963
    -3.1088  -2.9612  -2.8265  -2.7790  -2.5314  -2.4717  -2.2775  -2.1150
    -2.0648  -1.9429  -1.7903  -1.7149  -1.6858  -1.5507  -1.5135  -1.4738
    -1.3815  -1.3492  -1.2947  -1.1490  -1.0185  -0.8739  -0.7917  -0.7279
    -0.1386   1.0030   2.2591   2.6593   3.3826   3.7608   4.3544   5.1427
     5.6232   7.2031

          k = 0.3750 0.2500 0.0000 ( 14394 PWs)   bands (ev):

   -45.5125  -3.6633  -3.5268  -3.5225  -3.4204  -3.3443  -3.2421  -3.0689
    -3.0218  -2.9881  -2.8854  -2.7402  -2.5950  -2.5320  -2.3820  -2.1415
    -2.0309  -1.9819  -1.8045  -1.6980  -1.5788  -1.5458  -1.4808  -1.4438
    -1.4162  -1.3512  -1.2599  -1.2237  -1.1282  -1.0675  -0.7946  -0.3900
     0.6967   1.9680   3.0885   3.3804   4.1775   4.5029   5.2482   5.7524
     6.2975   7.4930

          k = 0.3750 0.3750 0.0000 ( 14360 PWs)   bands (ev):

   -45.5117  -3.8025  -3.7073  -3.4871  -3.4069  -3.2707  -3.1904  -3.1660
    -3.0668  -2.9786  -2.8987  -2.6528  -2.6051  -2.4235  -2.3408  -2.2294
    -2.0226  -1.7440  -1.6350  -1.6240  -1.5357  -1.4475  -1.3941  -1.3608
    -1.3552  -1.3218  -1.2517  -1.2513  -1.0862  -1.0859  -0.7325   0.5069
     1.8221   3.1320   3.5799   4.1731   4.8499   5.2152   5.8986   6.1457
     6.3975   6.8602

          k = 0.3750-0.5000 0.0000 ( 14356 PWs)   bands (ev):

   -45.5114  -3.8438  -3.8164  -3.4473  -3.4262  -3.2827  -3.2693  -3.1879
    -3.1376  -3.0270  -2.9496  -2.6678  -2.5502  -2.4093  -2.3727  -1.9321
    -1.8885  -1.7314  -1.6096  -1.5388  -1.4338  -1.4124  -1.3944  -1.3498
    -1.3239  -1.3153  -1.2506  -1.2252  -1.1192  -0.8765  -0.8469   2.0381
     2.0487   3.3207   3.3607   4.4682   4.6140   5.5430   5.6018   6.2346
     6.8945   7.1206

          k = 0.3750-0.3750 0.0000 ( 14360 PWs)   bands (ev):

   -45.5117  -3.8025  -3.7073  -3.4871  -3.4069  -3.2707  -3.1904  -3.1660
    -3.0668  -2.9786  -2.8987  -2.6528  -2.6051  -2.4235  -2.3408  -2.2294
    -2.0226  -1.7440  -1.6350  -1.6240  -1.5357  -1.4475  -1.3941  -1.3608
    -1.3552  -1.3218  -1.2517  -1.2513  -1.0862  -1.0859  -0.7325   0.5069
     1.8221   3.1320   3.5799   4.1731   4.8499   5.2152   5.8986   6.1457
     6.3975   6.8602

          k = 0.3750-0.2500 0.0000 ( 14394 PWs)   bands (ev):

   -45.5125  -3.6633  -3.5268  -3.5225  -3.4204  -3.3443  -3.2421  -3.0689
    -3.0218  -2.9881  -2.8854  -2.7402  -2.5950  -2.5320  -2.3820  -2.1415
    -2.0309  -1.9819  -1.8045  -1.6980  -1.5788  -1.5458  -1.4808  -1.4438
    -1.4162  -1.3512  -1.2599  -1.2237  -1.1282  -1.0675  -0.7946  -0.3900
     0.6967   1.9680   3.0885   3.3804   4.1775   4.5029   5.2482   5.7524
     6.2975   7.4930

          k = 0.3750-0.1250 0.0000 ( 14401 PWs)   bands (ev):

   -45.5132  -3.7986  -3.7819  -3.5909  -3.3873  -3.2890  -3.2720  -3.1963
    -3.1088  -2.9612  -2.8265  -2.7790  -2.5314  -2.4717  -2.2775  -2.1150
    -2.0648  -1.9429  -1.7903  -1.7149  -1.6858  -1.5507  -1.5135  -1.4738
    -1.3815  -1.3492  -1.2947  -1.1490  -1.0185  -0.8739  -0.7917  -0.7279
    -0.1386   1.0030   2.2591   2.6593   3.3826   3.7608   4.3544   5.1427
     5.6232   7.2031

          k =-0.5000 0.0000 0.0000 ( 14350 PWs)   bands (ev):

   -45.5131  -3.9985  -3.9790  -3.5269  -3.4867  -3.3701  -3.3570  -2.9071
    -2.8897  -2.8616  -2.8354  -2.7575  -2.6735  -2.2744  -2.2222  -2.1339
    -2.0436  -1.9197  -1.8908  -1.6411  -1.5966  -1.4916  -1.4865  -1.4630
    -1.4453  -1.3636  -1.2906  -0.8871  -0.8420  -0.5476  -0.5447   0.3261
     0.3376   1.0199   1.0416   1.8568   2.2987   3.1364   3.5578   4.5976
     4.9191   7.3329

          k =-0.5000 0.1250 0.0000 ( 14406 PWs)   bands (ev):

   -45.5129  -3.8595  -3.8412  -3.4789  -3.4550  -3.3149  -3.2999  -3.1542
    -3.1111  -2.8334  -2.7846  -2.7240  -2.6788  -2.2870  -2.1372  -2.1366
    -2.0920  -1.8696  -1.8272  -1.6603  -1.6346  -1.4995  -1.4743  -1.4642
    -1.3204  -1.3114  -1.1889  -1.0504  -1.0254  -0.9123  -0.8875   0.5901
     0.5952   1.4278   1.4593   2.3516   2.7452   3.4684   3.8017   4.8624
     5.0814   7.5724

          k =-0.5000 0.2500 0.0000 ( 14414 PWs)   bands (ev):

   -45.5122  -3.6262  -3.5988  -3.5225  -3.5025  -3.4053  -3.3726  -3.0808
    -3.0582  -3.0257  -2.9195  -2.6385  -2.5678  -2.3248  -2.1695  -2.0292
    -1.9551  -1.9070  -1.8709  -1.6089  -1.5644  -1.4906  -1.4749  -1.4067
    -1.3861  -1.3755  -1.2242  -1.2171  -1.1322  -1.0009  -0.9787   1.2090
     1.2167   2.2899   2.2914   3.3397   3.6127   4.4704   4.5036   5.5551
     5.6687   7.9112

          k =-0.5000 0.3750 0.0000 ( 14356 PWs)   bands (ev):

   -45.5114  -3.8438  -3.8164  -3.4473  -3.4262  -3.2827  -3.2693  -3.1879
    -3.1376  -3.0270  -2.9496  -2.6678  -2.5502  -2.4093  -2.3727  -1.9321
    -1.8885  -1.7314  -1.6096  -1.5388  -1.4338  -1.4124  -1.3944  -1.3498
    -1.3239  -1.3153  -1.2506  -1.2252  -1.1192  -0.8765  -0.8469   2.0381
     2.0487   3.3207   3.3607   4.4682   4.6140   5.5430   5.6018   6.2346
     6.8945   7.1206

          k =-0.5000-0.5000 0.0000 ( 14372 PWs)   bands (ev):

   -45.5111  -3.9330  -3.9076  -3.3707  -3.3465  -3.3465  -3.3347  -3.2314
    -3.2314  -2.9609  -2.9609  -2.7514  -2.6174  -2.4487  -2.4487  -1.6898
    -1.6724  -1.6724  -1.5465  -1.5191  -1.3967  -1.3767  -1.3546  -1.3321
    -1.3261  -1.3106  -1.2010  -1.1736  -0.9684  -0.8446  -0.8446   2.6086
     2.6086   4.1494   4.1494   5.3886   5.3886   5.4483   5.9691   6.0239
     6.3017   6.7148

     the Fermi energy is     2.1449 ev

!    total energy              =    -520.54021036 Ry
     estimated scf accuracy    <          5.1E-09 Ry
     smearing contrib. (-TS)   =      -0.00254386 Ry
     internal energy E=F+TS    =    -520.53766650 Ry

     The total energy is F=E-TS. E is the sum of the following terms:
     one-electron contribution =   -5557.83309251 Ry
     hartree contribution      =    2825.84655234 Ry
     xc contribution           =    -137.44861840 Ry
     ewald contribution        =    2349.06665740 Ry
     DFT-D3 Dispersion         =      -0.16916532 Ry

     convergence has been achieved in   7 iterations

     negative rho (up, down):  1.217E-05 0.000E+00

     Forces acting on atoms (cartesian axes, Ry/au):

     atom    1 type  2   force =     0.00000074    0.00000077   -0.00010563
     atom    2 type  2   force =     0.00000109    0.00000070    0.00082759
     atom    3 type  2   force =     0.00000042    0.00000034   -0.00011868
     atom    4 type  2   force =     0.00000027    0.00000031    0.00084995
     atom    5 type  2   force =     0.00000005    0.00000045   -0.00079530
     atom    6 type  2   force =     0.00000027    0.00000021   -0.00097424
     atom    7 type  1   force =    -0.00000284   -0.00000279    0.00031629
     The non-local contrib.  to forces
     atom    1 type  2   force =    -0.00000056   -0.00000034    0.00319830
     atom    2 type  2   force =    -0.00000174   -0.00000196    0.09961730
     atom    3 type  2   force =     0.00000041    0.00000023   -0.00296102
     atom    4 type  2   force =    -0.00000015   -0.00000002   -0.00133152
     atom    5 type  2   force =    -0.00000006    0.00000011   -0.14371021
     atom    6 type  2   force =    -0.00000016   -0.00000021    0.00561702
     atom    7 type  1   force =     0.00000012    0.00000013    0.03738943
     The ionic contribution  to forces
     atom    1 type  2   force =     0.00000853    0.00000823   70.12678156
     atom    2 type  2   force =     0.00002844    0.00001719  114.34857387
     atom    3 type  2   force =     0.00001086    0.00000392  -30.62219921
     atom    4 type  2   force =     0.00000235    0.00000432   19.19793536
     atom    5 type  2   force =    -0.00000986    0.00000342 -126.26755481
     atom    6 type  2   force =    -0.00000407   -0.00000173  -81.55721165
     atom    7 type  1   force =    -0.00003624   -0.00003535   34.77367488
     The local contribution  to forces
     atom    1 type  2   force =    -0.00000753   -0.00000734  -70.12723566
     atom    2 type  2   force =    -0.00002575   -0.00001461 -114.44396117
     atom    3 type  2   force =    -0.00001110   -0.00000425   30.62227574
     atom    4 type  2   force =    -0.00000225   -0.00000424  -19.19351188
     atom    5 type  2   force =     0.00000961   -0.00000340  126.40068212
     atom    6 type  2   force =     0.00000409    0.00000189   81.54613230
     atom    7 type  1   force =     0.00003303    0.00003215  -34.80766282
     The core correction contribution to forces
     atom    1 type  2   force =    -0.00000004   -0.00000003   -0.00054132
     atom    2 type  2   force =    -0.00000020   -0.00000015   -0.00165879
     atom    3 type  2   force =    -0.00000004   -0.00000002    0.00049915
     atom    4 type  2   force =    -0.00000002   -0.00000002   -0.00051669
     atom    5 type  2   force =     0.00000004   -0.00000001    0.00686153
     atom    6 type  2   force =     0.00000001    0.00000000    0.00084338
     atom    7 type  1   force =     0.00000000    0.00000000    0.00000000
     The Hubbard contrib.    to forces
     atom    1 type  2   force =     0.00000000    0.00000000    0.00000000
     atom    2 type  2   force =     0.00000000    0.00000000    0.00000000
     atom    3 type  2   force =     0.00000000    0.00000000    0.00000000
     atom    4 type  2   force =     0.00000000    0.00000000    0.00000000
     atom    5 type  2   force =     0.00000000    0.00000000    0.00000000
     atom    6 type  2   force =     0.00000000    0.00000000    0.00000000
     atom    7 type  1   force =     0.00000000    0.00000000    0.00000000
     The SCF correction term to forces
     atom    1 type  2   force =     0.00000010   -0.00000001    0.00002053
     atom    2 type  2   force =     0.00000013   -0.00000001   -0.00002182
     atom    3 type  2   force =     0.00000006    0.00000021   -0.00000729
     atom    4 type  2   force =     0.00000012    0.00000002    0.00003743
     atom    5 type  2   force =     0.00000005    0.00000008   -0.00005717
     atom    6 type  2   force =     0.00000012    0.00000001   -0.00008760
     atom    7 type  1   force =    -0.00000006   -0.00000006    0.00004581

     DFT-D3 dispersion contribution to forces:
     atom    1 type  2   force =    -0.00000001    0.00000000   -0.00233546
     atom    2 type  2   force =    -0.00000006   -0.00000003   -0.00172822
     atom    3 type  2   force =    -0.00000002   -0.00000001    0.00226754
     atom    4 type  2   force =    -0.00000002   -0.00000002   -0.00176916
     atom    5 type  2   force =     0.00000002   -0.00000001    0.00297682
     atom    6 type  2   force =     0.00000002   -0.00000000    0.00372590
     atom    7 type  1   force =     0.00000007    0.00000007   -0.00313744

     Total force =     0.001765     Total SCF correction =     0.000124


     Computing stress (Cartesian axis) and pressure


     negative rho (up, down):  1.217E-05 0.000E+00
          total   stress  (Ry/bohr**3)                   (kbar)     P=      -15.54
  -0.00013901   0.00000000  -0.00000000          -20.45        0.00       -0.00
   0.00000000  -0.00013901  -0.00000000            0.00      -20.45       -0.00
  -0.00000000  -0.00000000  -0.00003888           -0.00       -0.00       -5.72

     Energy error            =      7.1E-06 Ry
     Gradient error          =      9.7E-04 Ry/Bohr

     bfgs converged in  16 scf cycles and  15 bfgs steps
     (criteria: energy <  1.0E-04 Ry, force <  1.0E-03 Ry/Bohr)

     End of BFGS Geometry Optimization

     Final energy             =    -520.5402103627 Ry

     File ./Ag_mp-2646971_100_ontop_0/Ag_mp-2646971_100_ontop_0.bfgs deleted, as requested
Begin final coordinates

ATOMIC_POSITIONS (angstrom)
Ag            2.4834805061        2.4834960665       16.4604404214
Ag            0.8278287821        0.8278472457       18.0332614202
Ag            2.4834819141        2.4834904077       13.2652590147
Ag            0.8278266082        0.8278383647       14.8427643127
Ag            2.4834893513        2.4834886982       10.0820168462
Ag            0.8278324657        0.8278356164       11.6544162673
Li            0.8277389072        0.8277596980       20.5466392479
End final coordinates



     Writing all to output data dir ./Ag_mp-2646971_100_ontop_0/Ag_mp-2646971_100_ontop_0.save/

     init_run     :      4.00s CPU      4.96s WALL (       1 calls)
     electrons    :     56.81s CPU     64.55s WALL (      16 calls)
     update_pot   :      3.47s CPU      3.62s WALL (      15 calls)
     forces       :      3.14s CPU      3.69s WALL (      16 calls)
     force_dftd3  :      0.16s CPU      0.38s WALL (      16 calls)
     stress       :     13.90s CPU     16.58s WALL (      16 calls)
     stres_dftd3  :      1.02s CPU      2.01s WALL (      16 calls)

     Called by init_run:
     wfcinit      :      0.36s CPU      0.82s WALL (       1 calls)
     potinit      :      0.83s CPU      0.84s WALL (       1 calls)
     hinit0       :      2.69s CPU      3.14s WALL (       1 calls)

     Called by electrons:
     c_bands      :     47.13s CPU     51.70s WALL (     134 calls)
     sum_band     :      7.13s CPU      8.07s WALL (     134 calls)
     v_of_rho     :      1.08s CPU      1.49s WALL (     144 calls)
     newd         :      1.06s CPU      1.11s WALL (     144 calls)
     mix_rho      :      0.14s CPU      0.15s WALL (     134 calls)
     energy_dftd3 :      0.03s CPU      0.03s WALL (      16 calls)

     Called by c_bands:
     init_us_2    :      0.28s CPU      0.31s WALL (    2709 calls)
     init_us_2:cp :      0.28s CPU      0.31s WALL (    2709 calls)
     cegterg      :     42.68s CPU     45.77s WALL (    1206 calls)

     Called by *egterg:
     cdiaghg      :      9.33s CPU      9.43s WALL (    4480 calls)
     h_psi        :     27.50s CPU     30.22s WALL (    4678 calls)
     s_psi        :      0.99s CPU      1.03s WALL (    4678 calls)
     g_psi        :      0.09s CPU      0.09s WALL (    3463 calls)

     Called by h_psi:
     h_psi:calbec :      2.01s CPU      2.44s WALL (    4678 calls)
     vloc_psi     :     24.46s CPU     26.68s WALL (    4678 calls)
     add_vuspsi   :      0.96s CPU      1.03s WALL (    4678 calls)

     General routines
     calbec       :      3.59s CPU      4.21s WALL (    6604 calls)
     fft          :      3.86s CPU      4.37s WALL (    2261 calls)
     ffts         :      0.92s CPU      1.36s WALL (     278 calls)
     fftw         :     26.89s CPU     29.32s WALL (  313860 calls)
     interpolate  :      0.85s CPU      1.09s WALL (     144 calls)

     Parallel routines

     PWSCF        :   1m22.02s CPU   1m35.25s WALL


   This run was terminated on:   6:30:57  24Jul2025            

=------------------------------------------------------------------------------=
   JOB DONE.
=------------------------------------------------------------------------------=
