
     Program PWSCF v.7.2 starts on 18Jul2025 at 11:26:15 

     This program is part of the open-source Quantum ESPRESSO suite
     for quantum simulation of materials; please cite
         "P. Giannozzi et al., J. Phys.:Condens. Matter 21 395502 (2009);
         "P. Giannozzi et al., J. Phys.:Condens. Matter 29 465901 (2017);
         "P. Giannozzi et al., J. Chem. Phys. 152 154105 (2020);
          URL http://www.quantum-espresso.org", 
     in publications or presentations arising from this work. More details at
     http://www.quantum-espresso.org/quote

     Parallel version (MPI & OpenMP), running on     128 processor cores
     Number of MPI processes:               128
     Threads/MPI process:                     1

     MPI processes distributed on     2 nodes
     240630 MiB available memory on the printing compute node when the environment starts

     Reading input from Ag_mp-2646971_111.in

     Current dimensions of program PWSCF are:
     Max number of different atomic species (ntypx) = 10
     Max number of k-points (npk) =  40000
     Max angular momentum in pseudopotentials (lmaxx) =  4
     Message from routine iosys:
     restart disabled: needed files not found

     K-points division:     npool     =       4
     R & G space division:  proc/nbgrp/npool/nimage =      32
     Subspace diagonalization in iterative solution of the eigenvalue problem:
     a serial algorithm will be used


     Parallelization info
     --------------------
     sticks:   dense  smooth     PW     G-vecs:    dense   smooth      PW
     Min          84      37     10                20648     6008     942
     Max          85      38     11                20670     6039     968
     Sum        2713    1189    349               661159   192697   30755

     Using Slab Decomposition



     bravais-lattice index     =            0
     lattice parameter (alat)  =       8.8494  a.u.
     unit-cell volume          =    3499.1022 (a.u.)^3
     number of atoms/cell      =            9
     number of atomic types    =            1
     number of electrons       =        99.00
     number of Kohn-Sham states=           60
     kinetic-energy cutoff     =      55.0000  Ry
     charge density cutoff     =     500.0000  Ry
     scf convergence threshold =      1.0E-06
     mixing beta               =       0.3000
     number of iterations used =            8  plain     mixing
     energy convergence thresh.=      1.0E-04
     force convergence thresh. =      1.0E-03
     Exchange-correlation= PBE
                           (   1   4   3   4   0   0   0)
     nstep                     =          500


     celldm(1)=   8.849392  celldm(2)=   0.000000  celldm(3)=   0.000000
     celldm(4)=   0.000000  celldm(5)=   0.000000  celldm(6)=   0.000000

     crystal axes: (cart. coord. in units of alat)
               a(1) = (   0.997419   0.000000  -0.071796 )  
               a(2) = (   0.501294   0.865277   0.000000 )  
               a(3) = (   0.000000   0.000000   5.850369 )  

     reciprocal axes: (cart. coord. in units 2 pi/alat)
               b(1) = (  1.002587 -0.580844  0.000000 )  
               b(2) = ( -0.000000  1.155699  0.000000 )  
               b(3) = (  0.012304 -0.007128  0.170929 )  


     PseudoPot. # 1 for Ag read from file:
     /home/ecastro/trabajo_final/pseudos/Ag.pbe-n-rrkjus_psl.1.0.0.UPF
     MD5 check sum: 81cdf87bacf708300839c66ee23ce017
     Pseudo is Ultrasoft + core correction, Zval = 11.0
     Generated using &quot;atomic&quot; code by A. Dal Corso  v.6.2.2
     Using radial grid of 1237 points,  6 beta functions with: 
                l(1) =   0
                l(2) =   0
                l(3) =   1
                l(4) =   1
                l(5) =   2
                l(6) =   2
     Q(r) pseudized with 0 coefficients 


     atomic species   valence    mass     pseudopotential
        Ag            11.00   107.86820     Ag( 1.00)

     No symmetry found



   Cartesian axes

     site n.     atom                  positions (alat units)
         1           Ag  tau(   1) = (   0.9603822   0.6956150   3.4995509  )
         2           Ag  tau(   2) = (   0.9733021   0.1102804   3.6790405  )
         3           Ag  tau(   3) = (   0.9293743   0.1357298   3.0687760  )
         4           Ag  tau(   4) = (   0.4461686   0.4156724   3.3200614  )
         5           Ag  tau(   5) = (   0.4022408   0.4411217   2.7097969  )
         6           Ag  tau(   6) = (   0.9164544   0.7210643   2.8892865  )
         7           Ag  tau(   7) = (   0.8725266   0.7465137   2.2790220  )
         8           Ag  tau(   8) = (   0.8854465   0.1611791   2.4585116  )
         9           Ag  tau(   9) = (   0.3583130   0.4665710   2.0995325  )

     --------------------------------------------
     DFT-D3 Dispersion Correction (no 3-body):
     --------------------------------------------
       Reference C6 values for interpolation: 

         atom   Coordination number   C6
         Ag         0.000           853.49
         Ag         0.968           537.23

       Values used:

         atom   Coordination number  R0_AB[au]  C6      C8
         Ag         6.027            3.147    537.23  47741.54
         Ag         3.767            3.147    537.23  47741.54
         Ag         7.489            3.147    537.23  47741.54
         Ag         6.733            3.147    537.23  47741.54
         Ag         7.489            3.147    537.23  47741.54
         Ag         7.499            3.147    537.23  47741.54
         Ag         6.027            3.147    537.23  47741.54
         Ag         6.733            3.147    537.23  47741.54
         Ag         3.767            3.147    537.23  47741.54

         Molecular C6 ( Ry / a.u.^6 ) =     43515.31


     number of k points=    34  Methfessel-Paxton smearing, width (Ry)=  0.0300
                       cart. coord. in units 2pi/alat
        k(    1) = (   0.0000000   0.0000000   0.0000000), wk =   0.0312500
        k(    2) = (   0.0000000   0.1444624   0.0000000), wk =   0.0625000
        k(    3) = (   0.0000000   0.2889247   0.0000000), wk =   0.0625000
        k(    4) = (   0.0000000   0.4333871   0.0000000), wk =   0.0625000
        k(    5) = (   0.0000000  -0.5778495   0.0000000), wk =   0.0312500
        k(    6) = (   0.1253234  -0.0726054   0.0000000), wk =   0.0625000
        k(    7) = (   0.1253234   0.0718569   0.0000000), wk =   0.0625000
        k(    8) = (   0.1253234   0.2163193   0.0000000), wk =   0.0625000
        k(    9) = (   0.1253234   0.3607817   0.0000000), wk =   0.0625000
        k(   10) = (   0.1253234  -0.6504549   0.0000000), wk =   0.0625000
        k(   11) = (   0.1253234  -0.5059926   0.0000000), wk =   0.0625000
        k(   12) = (   0.1253234  -0.3615302   0.0000000), wk =   0.0625000
        k(   13) = (   0.1253234  -0.2170678   0.0000000), wk =   0.0625000
        k(   14) = (   0.2506468  -0.1452109   0.0000000), wk =   0.0625000
        k(   15) = (   0.2506468  -0.0007485   0.0000000), wk =   0.0625000
        k(   16) = (   0.2506468   0.1437139   0.0000000), wk =   0.0625000
        k(   17) = (   0.2506468   0.2881762   0.0000000), wk =   0.0625000
        k(   18) = (   0.2506468  -0.7230604   0.0000000), wk =   0.0625000
        k(   19) = (   0.2506468  -0.5785980   0.0000000), wk =   0.0625000
        k(   20) = (   0.2506468  -0.4341356   0.0000000), wk =   0.0625000
        k(   21) = (   0.2506468  -0.2896733   0.0000000), wk =   0.0625000
        k(   22) = (   0.3759702  -0.2178163   0.0000000), wk =   0.0625000
        k(   23) = (   0.3759702  -0.0733540   0.0000000), wk =   0.0625000
        k(   24) = (   0.3759702   0.0711084   0.0000000), wk =   0.0625000
        k(   25) = (   0.3759702   0.2155708   0.0000000), wk =   0.0625000
        k(   26) = (   0.3759702  -0.7956658   0.0000000), wk =   0.0625000
        k(   27) = (   0.3759702  -0.6512034   0.0000000), wk =   0.0625000
        k(   28) = (   0.3759702  -0.5067411   0.0000000), wk =   0.0625000
        k(   29) = (   0.3759702  -0.3622787   0.0000000), wk =   0.0625000
        k(   30) = (  -0.5012937   0.2904218   0.0000000), wk =   0.0312500
        k(   31) = (  -0.5012937   0.4348841   0.0000000), wk =   0.0625000
        k(   32) = (  -0.5012937   0.5793465   0.0000000), wk =   0.0625000
        k(   33) = (  -0.5012937   0.7238089   0.0000000), wk =   0.0625000
        k(   34) = (  -0.5012937  -0.2874277   0.0000000), wk =   0.0312500

     Dense  grid:   661159 G-vectors     FFT dimensions: (  64,  64, 375)

     Smooth grid:   192697 G-vectors     FFT dimensions: (  45,  45, 250)

     Estimated max dynamical RAM per process >      39.21 MB

     Estimated total dynamical RAM >       4.43 GB
     Cannot read rho : file not found

     Initial potential from superposition of free atoms

     starting charge      98.9964, renormalised to      99.0000

     negative rho (up, down):  8.757E-05 0.000E+00
     Message from routine qexsd_readschema :
     xml data file ./Ag_111/Ag_111.save/data-file-schema.xml not found
     Cannot read wfcs: file not found
     Starting wfcs are   81 randomized atomic wfcs

     total cpu time spent up to now is        6.9 secs

     per-process dynamical memory:   184.3 Mb

     Self-consistent Calculation

     iteration #  1     ecut=    55.00 Ry     beta= 0.30
     Davidson diagonalization with overlap
     c_bands:  1 eigenvalues not converged
     c_bands:  1 eigenvalues not converged
     c_bands:  2 eigenvalues not converged
     c_bands:  2 eigenvalues not converged
     c_bands:  1 eigenvalues not converged
     ethr =  1.00E-05,  avg # of iterations = 18.8

     negative rho (up, down):  7.257E-05 0.000E+00

     total cpu time spent up to now is       14.3 secs

     total energy              =    -758.41651285 Ry
     estimated scf accuracy    <       0.22467905 Ry

     iteration #  2     ecut=    55.00 Ry     beta= 0.30
     Davidson diagonalization with overlap
     ethr =  2.27E-04,  avg # of iterations =  8.4

     negative rho (up, down):  6.089E-05 0.000E+00

     total cpu time spent up to now is       17.1 secs

     total energy              =    -758.43132562 Ry
     estimated scf accuracy    <       0.34312127 Ry

     iteration #  3     ecut=    55.00 Ry     beta= 0.30
     Davidson diagonalization with overlap
     ethr =  2.27E-04,  avg # of iterations =  2.3

     negative rho (up, down):  4.565E-05 0.000E+00

     total cpu time spent up to now is       18.8 secs

     total energy              =    -758.47470671 Ry
     estimated scf accuracy    <       0.01389445 Ry

     iteration #  4     ecut=    55.00 Ry     beta= 0.30
     Davidson diagonalization with overlap
     ethr =  1.40E-05,  avg # of iterations = 12.0

     negative rho (up, down):  4.015E-05 0.000E+00

     total cpu time spent up to now is       21.1 secs

     total energy              =    -758.47647326 Ry
     estimated scf accuracy    <       0.00109532 Ry

     iteration #  5     ecut=    55.00 Ry     beta= 0.30
     Davidson diagonalization with overlap
     ethr =  1.11E-06,  avg # of iterations =  5.9

     negative rho (up, down):  4.169E-05 0.000E+00

     total cpu time spent up to now is       23.0 secs

     total energy              =    -758.47666440 Ry
     estimated scf accuracy    <       0.00019334 Ry

     iteration #  6     ecut=    55.00 Ry     beta= 0.30
     Davidson diagonalization with overlap
     ethr =  1.95E-07,  avg # of iterations =  4.7

     negative rho (up, down):  3.674E-05 0.000E+00

     total cpu time spent up to now is       24.6 secs

     total energy              =    -758.47668848 Ry
     estimated scf accuracy    <       0.00003033 Ry

     iteration #  7     ecut=    55.00 Ry     beta= 0.30
     Davidson diagonalization with overlap
     ethr =  3.06E-08,  avg # of iterations =  3.7

     negative rho (up, down):  3.419E-05 0.000E+00

     total cpu time spent up to now is       26.0 secs

     total energy              =    -758.47669003 Ry
     estimated scf accuracy    <       0.00006636 Ry

     iteration #  8     ecut=    55.00 Ry     beta= 0.30
     Davidson diagonalization with overlap
     ethr =  3.06E-08,  avg # of iterations =  1.4

     negative rho (up, down):  3.302E-05 0.000E+00

     total cpu time spent up to now is       27.2 secs

     total energy              =    -758.47669661 Ry
     estimated scf accuracy    <       0.00000492 Ry

     iteration #  9     ecut=    55.00 Ry     beta= 0.30
     Davidson diagonalization with overlap
     ethr =  4.97E-09,  avg # of iterations =  3.1

     negative rho (up, down):  2.995E-05 0.000E+00

     total cpu time spent up to now is       28.4 secs

     End of self-consistent calculation

          k = 0.0000 0.0000 0.0000 ( 24179 PWs)   bands (ev):

    -5.9519  -4.8275  -4.8274  -4.8099  -4.2772  -4.2772  -4.2294  -4.1852
    -4.1414  -4.1414  -4.1350  -4.1350  -3.8892  -3.8891  -3.8714  -3.8392
    -3.8391  -3.7526  -3.7526  -3.4620  -3.4429  -3.3708  -3.3708  -3.3009
    -3.3009  -3.2957  -2.8691  -2.5952  -2.5952  -2.5761  -2.5403  -2.5403
    -2.4820  -2.4820  -2.4565  -2.4565  -2.3987  -2.3986  -2.3558  -2.3557
    -2.2787  -2.2787  -2.1707  -2.0352  -2.0352  -1.8920  -1.8920  -1.1995
     0.6184   2.6500   4.4150   4.8733   5.5604   5.5866   5.8241   5.8241
     5.9205   5.9206   6.1878   6.1907

          k = 0.0000 0.1445 0.0000 ( 24156 PWs)   bands (ev):

    -5.7983  -4.7830  -4.7661  -4.7638  -4.3890  -4.3444  -4.2939  -4.2605
    -4.2296  -4.1432  -4.1115  -4.0344  -3.9732  -3.9667  -3.7921  -3.7664
    -3.7228  -3.7099  -3.5909  -3.4856  -3.3454  -3.3367  -3.3233  -3.2490
    -3.2016  -3.1882  -2.8435  -2.6895  -2.6339  -2.5809  -2.5449  -2.5162
    -2.5156  -2.4890  -2.4709  -2.4531  -2.4238  -2.4065  -2.3622  -2.3545
    -2.3225  -2.3222  -2.1911  -2.1040  -2.0448  -1.9588  -1.8658  -1.1280
     0.7409   2.7697   3.6040   4.3699   4.5262   4.6315   5.0182   5.4489
     5.5644   5.6517   5.7358   6.0196

          k = 0.0000 0.2889 0.0000 ( 24139 PWs)   bands (ev):

    -5.3725  -4.7499  -4.6413  -4.5832  -4.5453  -4.4849  -4.3425  -4.3380
    -4.2251  -4.1609  -4.0661  -4.0220  -3.9507  -3.9020  -3.8025  -3.7755
    -3.6030  -3.5782  -3.5626  -3.3358  -3.3155  -3.2212  -3.1896  -3.1048
    -3.0522  -2.8984  -2.8351  -2.7656  -2.7028  -2.6479  -2.6183  -2.5824
    -2.5480  -2.5178  -2.5095  -2.4734  -2.4679  -2.4060  -2.3731  -2.3559
    -2.3348  -2.3028  -2.2441  -2.1417  -2.0865  -2.0799  -1.8160  -0.8511
     1.1127   1.5053   2.5883   3.0886   3.1099   4.0840   4.5571   4.9351
     5.1136   5.4300   5.7757   6.0024

          k = 0.0000 0.4334 0.0000 ( 24088 PWs)   bands (ev):

    -4.9008  -4.7711  -4.7278  -4.4486  -4.3781  -4.3549  -4.3175  -4.2756
    -4.1990  -4.1581  -4.1045  -3.9854  -3.9399  -3.8864  -3.7799  -3.7134
    -3.6536  -3.6108  -3.4800  -3.3350  -3.2575  -3.2435  -3.2100  -3.1071
    -3.0298  -2.8698  -2.8657  -2.7697  -2.6866  -2.6849  -2.6511  -2.6302
    -2.5414  -2.5331  -2.5145  -2.4898  -2.4321  -2.3969  -2.3746  -2.3131
    -2.2989  -2.2316  -2.1466  -2.0404  -2.0302  -1.7997  -1.7732  -0.3224
    -0.2017   0.8007   1.8175   2.1490   2.3907   3.4823   3.8852   4.7127
     4.9808   5.6649   5.8583   6.1153

          k = 0.0000-0.5778 0.0000 ( 24060 PWs)   bands (ev):

    -4.9005  -4.8438  -4.4067  -4.3853  -4.3057  -4.2806  -4.2410  -4.2358
    -4.1671  -4.0665  -4.0478  -4.0377  -4.0191  -3.9151  -3.8387  -3.7602
    -3.6529  -3.5997  -3.4536  -3.3580  -3.3354  -3.2718  -3.2619  -3.1378
    -3.0541  -2.8545  -2.8520  -2.7391  -2.7363  -2.7311  -2.6295  -2.6262
    -2.6072  -2.5305  -2.5183  -2.4868  -2.4540  -2.4034  -2.4004  -2.2944
    -2.1980  -2.1687  -1.9645  -1.8907  -1.7409  -1.6917  -1.5625  -0.7905
    -0.6721   0.7176   1.1749   1.7797   2.4663   3.1097   3.6470   4.7194
     4.9195   5.6788   5.9728   5.9767

          k = 0.1253-0.0726 0.0000 ( 24146 PWs)   bands (ev):

    -5.7983  -4.7830  -4.7661  -4.7638  -4.3889  -4.3444  -4.2939  -4.2605
    -4.2296  -4.1431  -4.1116  -4.0344  -3.9733  -3.9668  -3.7921  -3.7664
    -3.7228  -3.7099  -3.5909  -3.4857  -3.3453  -3.3367  -3.3233  -3.2490
    -3.2015  -3.1881  -2.8435  -2.6895  -2.6339  -2.5809  -2.5449  -2.5162
    -2.5156  -2.4890  -2.4709  -2.4531  -2.4238  -2.4065  -2.3622  -2.3545
    -2.3225  -2.3222  -2.1911  -2.1040  -2.0448  -1.9588  -1.8658  -1.1280
     0.7409   2.7697   3.6040   4.3699   4.5255   4.6319   5.0210   5.4501
     5.5644   5.6225   5.7579   6.0286

          k = 0.1253 0.0719 0.0000 ( 24156 PWs)   bands (ev):

    -5.7983  -4.7830  -4.7661  -4.7638  -4.3890  -4.3444  -4.2939  -4.2605
    -4.2296  -4.1432  -4.1115  -4.0344  -3.9732  -3.9667  -3.7921  -3.7664
    -3.7228  -3.7099  -3.5909  -3.4856  -3.3454  -3.3367  -3.3233  -3.2490
    -3.2016  -3.1882  -2.8435  -2.6895  -2.6339  -2.5809  -2.5449  -2.5162
    -2.5156  -2.4890  -2.4709  -2.4531  -2.4238  -2.4065  -2.3622  -2.3545
    -2.3225  -2.3222  -2.1911  -2.1040  -2.0448  -1.9588  -1.8658  -1.1280
     0.7409   2.7697   3.6041   4.3699   4.5262   4.6315   5.0182   5.4489
     5.5644   5.6517   5.7358   6.0198

          k = 0.1253 0.2163 0.0000 ( 24149 PWs)   bands (ev):

    -5.5089  -4.7355  -4.6565  -4.6525  -4.5156  -4.4290  -4.3742  -4.3445
    -4.1995  -4.1731  -4.1263  -4.0017  -3.9981  -3.9147  -3.7968  -3.7548
    -3.7249  -3.5056  -3.4834  -3.3568  -3.2964  -3.2743  -3.2579  -3.1301
    -3.0418  -3.0088  -2.8336  -2.7523  -2.7182  -2.6332  -2.6089  -2.5783
    -2.5455  -2.5235  -2.4944  -2.4942  -2.4276  -2.4200  -2.3621  -2.3390
    -2.3139  -2.3137  -2.2441  -2.2067  -2.0786  -1.9198  -1.9105  -0.9506
     0.9950   2.4940   2.5539   3.0173   3.5751   3.7679   4.7157   5.1163
     5.3061   5.4119   5.9916   6.0596

          k = 0.1253 0.3608 0.0000 ( 24102 PWs)   bands (ev):

    -5.0299  -4.7279  -4.6522  -4.5395  -4.4598  -4.4443  -4.4134  -4.3074
    -4.2616  -4.1693  -4.0764  -3.9696  -3.9339  -3.8721  -3.7970  -3.7604
    -3.7067  -3.4791  -3.4250  -3.3080  -3.2474  -3.1649  -3.1068  -3.0357
    -2.9848  -2.8908  -2.8554  -2.8247  -2.7142  -2.7037  -2.6701  -2.6370
    -2.5504  -2.5362  -2.5271  -2.5155  -2.5003  -2.4224  -2.3710  -2.3470
    -2.3170  -2.2175  -2.1612  -2.1408  -1.9970  -1.9713  -1.8620  -0.4801
     0.5840   1.4527   1.6458   1.8150   2.9302   3.3120   3.5735   4.5845
     5.2946   5.7550   5.9400   6.2531

          k = 0.1253-0.6505 0.0000 ( 24065 PWs)   bands (ev):

    -4.8314  -4.7888  -4.5697  -4.4257  -4.3875  -4.3229  -4.2820  -4.2340
    -4.2078  -4.1809  -4.0621  -3.9856  -3.8697  -3.8444  -3.7790  -3.7516
    -3.6617  -3.5753  -3.4909  -3.3912  -3.3081  -3.1782  -3.0981  -3.0250
    -2.9755  -2.9446  -2.8785  -2.8206  -2.7185  -2.6820  -2.6671  -2.6396
    -2.5724  -2.5582  -2.5290  -2.5048  -2.4781  -2.4545  -2.4115  -2.3092
    -2.1296  -2.0951  -2.0661  -1.9636  -1.9017  -1.8301  -1.2734  -0.9689
    -0.0155   0.5245   1.0126   1.7818   2.3424   2.6620   3.4358   4.4523
     4.8052   6.0265   6.2101   6.4079

          k = 0.1253-0.5060 0.0000 ( 24070 PWs)   bands (ev):

    -4.8314  -4.7887  -4.5697  -4.4257  -4.3875  -4.3229  -4.2821  -4.2340
    -4.2078  -4.1809  -4.0621  -3.9856  -3.8697  -3.8444  -3.7790  -3.7516
    -3.6617  -3.5753  -3.4909  -3.3912  -3.3081  -3.1782  -3.0982  -3.0251
    -2.9755  -2.9446  -2.8785  -2.8206  -2.7185  -2.6820  -2.6671  -2.6395
    -2.5724  -2.5582  -2.5290  -2.5048  -2.4781  -2.4545  -2.4115  -2.3092
    -2.1296  -2.0951  -2.0661  -1.9636  -1.9017  -1.8300  -1.2734  -0.9689
    -0.0155   0.5244   1.0126   1.7818   2.3424   2.6620   3.4358   4.4523
     4.8052   6.0265   6.2101   6.4028

          k = 0.1253-0.3615 0.0000 ( 24099 PWs)   bands (ev):

    -5.0299  -4.7279  -4.6522  -4.5395  -4.4598  -4.4444  -4.4134  -4.3074
    -4.2617  -4.1693  -4.0764  -3.9696  -3.9339  -3.8721  -3.7970  -3.7604
    -3.7067  -3.4791  -3.4250  -3.3080  -3.2474  -3.1649  -3.1068  -3.0357
    -2.9848  -2.8908  -2.8554  -2.8247  -2.7142  -2.7036  -2.6701  -2.6370
    -2.5503  -2.5362  -2.5271  -2.5155  -2.5002  -2.4224  -2.3710  -2.3470
    -2.3170  -2.2174  -2.1612  -2.1408  -1.9970  -1.9714  -1.8619  -0.4801
     0.5840   1.4527   1.6458   1.8150   2.9302   3.3121   3.5735   4.5845
     5.2944   5.7415   5.9803   6.2569

          k = 0.1253-0.2171 0.0000 ( 24155 PWs)   bands (ev):

    -5.5089  -4.7355  -4.6565  -4.6525  -4.5156  -4.4290  -4.3742  -4.3445
    -4.1995  -4.1731  -4.1262  -4.0017  -3.9981  -3.9147  -3.7968  -3.7548
    -3.7250  -3.5056  -3.4833  -3.3568  -3.2963  -3.2743  -3.2580  -3.1301
    -3.0418  -3.0088  -2.8337  -2.7523  -2.7182  -2.6332  -2.6089  -2.5783
    -2.5455  -2.5235  -2.4944  -2.4941  -2.4276  -2.4200  -2.3621  -2.3390
    -2.3139  -2.3137  -2.2440  -2.2067  -2.0787  -1.9198  -1.9105  -0.9506
     0.9950   2.4940   2.5539   3.0173   3.5751   3.7679   4.7149   5.1165
     5.3107   5.4153   5.9104   6.1470

          k = 0.2506-0.1452 0.0000 ( 24164 PWs)   bands (ev):

    -5.3725  -4.7499  -4.6413  -4.5832  -4.5453  -4.4849  -4.3425  -4.3380
    -4.2251  -4.1609  -4.0661  -4.0220  -3.9507  -3.9020  -3.8025  -3.7755
    -3.6030  -3.5782  -3.5627  -3.3358  -3.3155  -3.2212  -3.1897  -3.1048
    -3.0522  -2.8984  -2.8351  -2.7656  -2.7028  -2.6479  -2.6183  -2.5824
    -2.5480  -2.5178  -2.5095  -2.4735  -2.4679  -2.4060  -2.3731  -2.3559
    -2.3348  -2.3028  -2.2442  -2.1418  -2.0865  -2.0799  -1.8160  -0.8511
     1.1127   1.5053   2.5883   3.0886   3.1099   4.0840   4.5571   4.9333
     5.1136   5.4473   5.7901   5.8726

          k = 0.2506-0.0007 0.0000 ( 24155 PWs)   bands (ev):

    -5.5089  -4.7355  -4.6565  -4.6525  -4.5156  -4.4290  -4.3742  -4.3445
    -4.1995  -4.1731  -4.1262  -4.0017  -3.9981  -3.9147  -3.7968  -3.7548
    -3.7250  -3.5056  -3.4833  -3.3568  -3.2963  -3.2743  -3.2580  -3.1301
    -3.0418  -3.0088  -2.8337  -2.7523  -2.7182  -2.6332  -2.6089  -2.5783
    -2.5455  -2.5235  -2.4944  -2.4941  -2.4276  -2.4200  -2.3621  -2.3390
    -2.3139  -2.3137  -2.2440  -2.2067  -2.0787  -1.9198  -1.9105  -0.9506
     0.9950   2.4940   2.5539   3.0173   3.5751   3.7679   4.7149   5.1165
     5.3107   5.4153   5.9104   6.1469

          k = 0.2506 0.1437 0.0000 ( 24139 PWs)   bands (ev):

    -5.3725  -4.7499  -4.6413  -4.5832  -4.5453  -4.4849  -4.3425  -4.3380
    -4.2251  -4.1609  -4.0661  -4.0220  -3.9507  -3.9020  -3.8025  -3.7755
    -3.6030  -3.5782  -3.5626  -3.3358  -3.3155  -3.2212  -3.1896  -3.1048
    -3.0522  -2.8984  -2.8351  -2.7656  -2.7028  -2.6479  -2.6183  -2.5824
    -2.5480  -2.5178  -2.5095  -2.4734  -2.4679  -2.4060  -2.3731  -2.3559
    -2.3348  -2.3028  -2.2441  -2.1417  -2.0865  -2.0799  -1.8160  -0.8511
     1.1127   1.5053   2.5883   3.0886   3.1099   4.0840   4.5571   4.9351
     5.1136   5.4300   5.7757   6.0024

          k = 0.2506 0.2882 0.0000 ( 24102 PWs)   bands (ev):

    -5.0299  -4.7279  -4.6522  -4.5395  -4.4598  -4.4443  -4.4134  -4.3074
    -4.2616  -4.1693  -4.0764  -3.9696  -3.9339  -3.8721  -3.7970  -3.7604
    -3.7067  -3.4791  -3.4250  -3.3080  -3.2474  -3.1649  -3.1068  -3.0357
    -2.9848  -2.8908  -2.8554  -2.8247  -2.7142  -2.7037  -2.6701  -2.6370
    -2.5504  -2.5362  -2.5271  -2.5155  -2.5003  -2.4224  -2.3710  -2.3470
    -2.3170  -2.2175  -2.1612  -2.1408  -1.9970  -1.9713  -1.8620  -0.4801
     0.5840   1.4527   1.6458   1.8150   2.9302   3.3121   3.5735   4.5845
     5.2946   5.7550   5.9400   6.2531

          k = 0.2506-0.7231 0.0000 ( 24086 PWs)   bands (ev):

    -4.7204  -4.6553  -4.6506  -4.5994  -4.5563  -4.3459  -4.3316  -4.2605
    -4.1554  -4.0876  -4.0777  -3.9387  -3.9199  -3.8844  -3.8332  -3.7786
    -3.6395  -3.4663  -3.3725  -3.3492  -3.2245  -3.1468  -3.0769  -2.9731
    -2.9705  -2.8877  -2.8622  -2.8223  -2.7281  -2.7188  -2.6747  -2.6494
    -2.6208  -2.5651  -2.5575  -2.5532  -2.5232  -2.4099  -2.3282  -2.2974
    -2.2896  -2.0960  -2.0510  -1.9736  -1.9587  -1.8941  -1.4222  -0.1749
    -0.0984   0.2445   1.1116   1.3628   2.3068   3.0020   3.0058   3.8026
     4.7499   5.8845   6.3060   6.6513

          k = 0.2506-0.5786 0.0000 ( 24049 PWs)   bands (ev):

    -4.7179  -4.6818  -4.6091  -4.5713  -4.4376  -4.4101  -4.2583  -4.1896
    -4.1850  -4.0496  -4.0450  -4.0191  -3.8967  -3.7783  -3.7674  -3.7415
    -3.6601  -3.5988  -3.4979  -3.2924  -3.2212  -3.1156  -3.0824  -2.9810
    -2.9581  -2.8694  -2.8121  -2.7982  -2.7723  -2.7610  -2.7114  -2.6507
    -2.6381  -2.6082  -2.5703  -2.5566  -2.4504  -2.3767  -2.3600  -2.1909
    -2.1115  -2.0770  -1.9117  -1.8788  -1.8565  -1.6001  -1.4972  -0.5661
    -0.2755  -0.2329   0.8446   1.5847   1.6591   2.8550   3.1143   3.5497
     4.2784   6.1841   6.3218   7.1973

          k = 0.2506-0.4341 0.0000 ( 24068 PWs)   bands (ev):

    -4.7204  -4.6553  -4.6506  -4.5994  -4.5563  -4.3460  -4.3316  -4.2605
    -4.1554  -4.0876  -4.0777  -3.9387  -3.9199  -3.8844  -3.8332  -3.7786
    -3.6394  -3.4663  -3.3725  -3.3492  -3.2245  -3.1468  -3.0769  -2.9731
    -2.9705  -2.8877  -2.8621  -2.8223  -2.7280  -2.7188  -2.6747  -2.6494
    -2.6207  -2.5651  -2.5574  -2.5532  -2.5232  -2.4098  -2.3282  -2.2973
    -2.2896  -2.0960  -2.0510  -1.9736  -1.9586  -1.8941  -1.4221  -0.1749
    -0.0984   0.2445   1.1116   1.3628   2.3068   3.0020   3.0058   3.8026
     4.7499   5.8855   6.2934   6.6998

          k = 0.2506-0.2897 0.0000 ( 24092 PWs)   bands (ev):

    -5.0299  -4.7279  -4.6522  -4.5395  -4.4598  -4.4444  -4.4134  -4.3073
    -4.2617  -4.1693  -4.0764  -3.9696  -3.9339  -3.8721  -3.7970  -3.7603
    -3.7067  -3.4791  -3.4250  -3.3080  -3.2474  -3.1649  -3.1068  -3.0357
    -2.9848  -2.8908  -2.8554  -2.8247  -2.7142  -2.7036  -2.6701  -2.6370
    -2.5503  -2.5362  -2.5271  -2.5155  -2.5002  -2.4224  -2.3709  -2.3470
    -2.3169  -2.2174  -2.1612  -2.1408  -1.9970  -1.9713  -1.8619  -0.4801
     0.5840   1.4527   1.6458   1.8150   2.9302   3.3120   3.5735   4.5845
     5.2920   5.7902   5.8978   6.2465

          k = 0.3760-0.2178 0.0000 ( 24082 PWs)   bands (ev):

    -4.9007  -4.7711  -4.7278  -4.4486  -4.3781  -4.3549  -4.3175  -4.2756
    -4.1990  -4.1581  -4.1045  -3.9854  -3.9399  -3.8864  -3.7799  -3.7134
    -3.6535  -3.6108  -3.4800  -3.3350  -3.2575  -3.2435  -3.2100  -3.1071
    -3.0298  -2.8698  -2.8657  -2.7696  -2.6866  -2.6849  -2.6511  -2.6301
    -2.5414  -2.5331  -2.5145  -2.4898  -2.4321  -2.3969  -2.3746  -2.3131
    -2.2989  -2.2316  -2.1466  -2.0405  -2.0302  -1.7997  -1.7732  -0.3224
    -0.2017   0.8007   1.8175   2.1490   2.3907   3.4823   3.8852   4.7126
     4.9808   5.6639   5.8630   6.1153

          k = 0.3760-0.0734 0.0000 ( 24092 PWs)   bands (ev):

    -5.0299  -4.7279  -4.6522  -4.5395  -4.4598  -4.4444  -4.4134  -4.3073
    -4.2617  -4.1693  -4.0764  -3.9696  -3.9339  -3.8721  -3.7970  -3.7603
    -3.7067  -3.4791  -3.4250  -3.3080  -3.2474  -3.1649  -3.1068  -3.0357
    -2.9848  -2.8908  -2.8554  -2.8247  -2.7142  -2.7036  -2.6701  -2.6370
    -2.5503  -2.5362  -2.5271  -2.5155  -2.5002  -2.4224  -2.3709  -2.3470
    -2.3169  -2.2174  -2.1612  -2.1408  -1.9970  -1.9713  -1.8619  -0.4801
     0.5840   1.4527   1.6458   1.8150   2.9302   3.3120   3.5735   4.5845
     5.2920   5.7901   5.8977   6.2464

          k = 0.3760 0.0711 0.0000 ( 24099 PWs)   bands (ev):

    -5.0299  -4.7279  -4.6522  -4.5395  -4.4598  -4.4444  -4.4134  -4.3074
    -4.2617  -4.1693  -4.0764  -3.9696  -3.9339  -3.8721  -3.7970  -3.7604
    -3.7067  -3.4791  -3.4250  -3.3080  -3.2474  -3.1649  -3.1068  -3.0357
    -2.9848  -2.8908  -2.8554  -2.8247  -2.7142  -2.7036  -2.6701  -2.6370
    -2.5503  -2.5362  -2.5271  -2.5155  -2.5002  -2.4224  -2.3710  -2.3470
    -2.3170  -2.2174  -2.1612  -2.1408  -1.9970  -1.9714  -1.8619  -0.4801
     0.5840   1.4527   1.6458   1.8150   2.9302   3.3120   3.5735   4.5845
     5.2942   5.7412   5.9801   6.2563

          k = 0.3760 0.2156 0.0000 ( 24088 PWs)   bands (ev):

    -4.9008  -4.7711  -4.7278  -4.4486  -4.3781  -4.3549  -4.3175  -4.2756
    -4.1990  -4.1581  -4.1045  -3.9854  -3.9399  -3.8864  -3.7799  -3.7134
    -3.6536  -3.6108  -3.4800  -3.3350  -3.2575  -3.2435  -3.2100  -3.1071
    -3.0298  -2.8698  -2.8657  -2.7697  -2.6866  -2.6849  -2.6511  -2.6302
    -2.5414  -2.5331  -2.5145  -2.4898  -2.4321  -2.3969  -2.3746  -2.3131
    -2.2989  -2.2316  -2.1466  -2.0404  -2.0302  -1.7997  -1.7732  -0.3224
    -0.2017   0.8007   1.8175   2.1490   2.3907   3.4823   3.8852   4.7127
     4.9808   5.6648   5.8567   6.1153

          k = 0.3760-0.7957 0.0000 ( 24065 PWs)   bands (ev):

    -4.8314  -4.7888  -4.5697  -4.4257  -4.3875  -4.3229  -4.2820  -4.2340
    -4.2078  -4.1809  -4.0621  -3.9856  -3.8697  -3.8444  -3.7790  -3.7516
    -3.6617  -3.5753  -3.4909  -3.3912  -3.3081  -3.1782  -3.0981  -3.0250
    -2.9755  -2.9446  -2.8785  -2.8206  -2.7185  -2.6820  -2.6671  -2.6396
    -2.5724  -2.5582  -2.5290  -2.5048  -2.4781  -2.4545  -2.4115  -2.3092
    -2.1296  -2.0951  -2.0661  -1.9636  -1.9017  -1.8301  -1.2734  -0.9689
    -0.0155   0.5245   1.0126   1.7818   2.3424   2.6620   3.4358   4.4523
     4.8052   6.0265   6.2101   6.4082

          k = 0.3760-0.6512 0.0000 ( 24049 PWs)   bands (ev):

    -4.7179  -4.6818  -4.6091  -4.5713  -4.4376  -4.4101  -4.2583  -4.1896
    -4.1850  -4.0496  -4.0450  -4.0191  -3.8967  -3.7783  -3.7674  -3.7415
    -3.6601  -3.5988  -3.4979  -3.2924  -3.2212  -3.1156  -3.0824  -2.9810
    -2.9581  -2.8694  -2.8121  -2.7982  -2.7723  -2.7610  -2.7114  -2.6507
    -2.6381  -2.6082  -2.5703  -2.5566  -2.4504  -2.3767  -2.3600  -2.1909
    -2.1115  -2.0770  -1.9117  -1.8788  -1.8565  -1.6001  -1.4972  -0.5661
    -0.2755  -0.2329   0.8446   1.5847   1.6591   2.8550   3.1143   3.5497
     4.2784   6.1840   6.3218   7.1930

          k = 0.3760-0.5067 0.0000 ( 24032 PWs)   bands (ev):

    -4.7179  -4.6818  -4.6091  -4.5713  -4.4375  -4.4101  -4.2583  -4.1896
    -4.1850  -4.0496  -4.0450  -4.0191  -3.8967  -3.7783  -3.7674  -3.7415
    -3.6600  -3.5988  -3.4979  -3.2924  -3.2212  -3.1156  -3.0824  -2.9810
    -2.9581  -2.8694  -2.8121  -2.7982  -2.7723  -2.7610  -2.7115  -2.6507
    -2.6381  -2.6082  -2.5703  -2.5566  -2.4504  -2.3767  -2.3600  -2.1909
    -2.1115  -2.0769  -1.9117  -1.8788  -1.8564  -1.6001  -1.4972  -0.5661
    -0.2755  -0.2329   0.8447   1.5847   1.6591   2.8550   3.1143   3.5497
     4.2784   6.1841   6.3218   7.1862

          k = 0.3760-0.3623 0.0000 ( 24075 PWs)   bands (ev):

    -4.8314  -4.7887  -4.5698  -4.4257  -4.3875  -4.3229  -4.2820  -4.2340
    -4.2078  -4.1810  -4.0621  -3.9856  -3.8697  -3.8444  -3.7790  -3.7516
    -3.6617  -3.5753  -3.4909  -3.3912  -3.3081  -3.1782  -3.0982  -3.0250
    -2.9755  -2.9446  -2.8785  -2.8206  -2.7185  -2.6820  -2.6671  -2.6395
    -2.5724  -2.5582  -2.5290  -2.5048  -2.4781  -2.4545  -2.4115  -2.3092
    -2.1296  -2.0951  -2.0662  -1.9636  -1.9017  -1.8301  -1.2734  -0.9689
    -0.0155   0.5244   1.0126   1.7818   2.3424   2.6620   3.4358   4.4523
     4.8052   6.0266   6.2137   6.3932

          k =-0.5013 0.2904 0.0000 ( 24044 PWs)   bands (ev):

    -4.9005  -4.8438  -4.4067  -4.3852  -4.3057  -4.2806  -4.2410  -4.2358
    -4.1670  -4.0665  -4.0479  -4.0377  -4.0191  -3.9150  -3.8387  -3.7602
    -3.6529  -3.5997  -3.4536  -3.3580  -3.3354  -3.2718  -3.2619  -3.1378
    -3.0541  -2.8545  -2.8520  -2.7391  -2.7363  -2.7311  -2.6296  -2.6262
    -2.6071  -2.5305  -2.5183  -2.4868  -2.4540  -2.4035  -2.4004  -2.2943
    -2.1980  -2.1686  -1.9645  -1.8907  -1.7408  -1.6917  -1.5625  -0.7905
    -0.6721   0.7176   1.1749   1.7797   2.4663   3.1097   3.6470   4.7194
     4.9196   5.6788   5.9728   5.9767

          k =-0.5013 0.4349 0.0000 ( 24075 PWs)   bands (ev):

    -4.8314  -4.7887  -4.5698  -4.4257  -4.3875  -4.3229  -4.2820  -4.2340
    -4.2078  -4.1810  -4.0621  -3.9856  -3.8697  -3.8444  -3.7790  -3.7516
    -3.6617  -3.5753  -3.4909  -3.3912  -3.3081  -3.1782  -3.0982  -3.0250
    -2.9755  -2.9446  -2.8785  -2.8206  -2.7185  -2.6820  -2.6671  -2.6395
    -2.5724  -2.5582  -2.5290  -2.5048  -2.4781  -2.4545  -2.4115  -2.3092
    -2.1296  -2.0951  -2.0662  -1.9636  -1.9017  -1.8301  -1.2734  -0.9689
    -0.0155   0.5244   1.0126   1.7818   2.3424   2.6620   3.4358   4.4523
     4.8052   6.0266   6.2145   6.3943

          k =-0.5013 0.5793 0.0000 ( 24068 PWs)   bands (ev):

    -4.7204  -4.6553  -4.6506  -4.5994  -4.5563  -4.3460  -4.3316  -4.2605
    -4.1554  -4.0876  -4.0777  -3.9387  -3.9199  -3.8844  -3.8332  -3.7786
    -3.6394  -3.4663  -3.3725  -3.3492  -3.2245  -3.1468  -3.0769  -2.9731
    -2.9705  -2.8877  -2.8621  -2.8223  -2.7280  -2.7188  -2.6747  -2.6494
    -2.6207  -2.5651  -2.5574  -2.5532  -2.5232  -2.4098  -2.3282  -2.2973
    -2.2896  -2.0960  -2.0510  -1.9736  -1.9586  -1.8941  -1.4221  -0.1749
    -0.0984   0.2445   1.1116   1.3628   2.3068   3.0020   3.0058   3.8026
     4.7499   5.8855   6.2931   6.6999

          k =-0.5013 0.7238 0.0000 ( 24070 PWs)   bands (ev):

    -4.8314  -4.7887  -4.5697  -4.4257  -4.3875  -4.3229  -4.2821  -4.2340
    -4.2078  -4.1809  -4.0621  -3.9856  -3.8697  -3.8444  -3.7790  -3.7516
    -3.6617  -3.5753  -3.4909  -3.3912  -3.3081  -3.1782  -3.0982  -3.0251
    -2.9755  -2.9446  -2.8785  -2.8206  -2.7185  -2.6820  -2.6671  -2.6395
    -2.5724  -2.5582  -2.5290  -2.5048  -2.4781  -2.4545  -2.4115  -2.3092
    -2.1296  -2.0951  -2.0661  -1.9636  -1.9017  -1.8300  -1.2734  -0.9689
    -0.0155   0.5244   1.0126   1.7818   2.3424   2.6620   3.4358   4.4523
     4.8052   6.0265   6.2106   6.4035

          k =-0.5013-0.2874 0.0000 ( 24060 PWs)   bands (ev):

    -4.9005  -4.8438  -4.4067  -4.3853  -4.3057  -4.2806  -4.2410  -4.2358
    -4.1671  -4.0665  -4.0478  -4.0377  -4.0191  -3.9151  -3.8387  -3.7602
    -3.6529  -3.5997  -3.4536  -3.3580  -3.3354  -3.2718  -3.2619  -3.1378
    -3.0541  -2.8545  -2.8520  -2.7391  -2.7363  -2.7311  -2.6295  -2.6262
    -2.6072  -2.5305  -2.5183  -2.4868  -2.4540  -2.4034  -2.4004  -2.2944
    -2.1980  -2.1687  -1.9645  -1.8907  -1.7409  -1.6917  -1.5625  -0.7905
    -0.6721   0.7176   1.1749   1.7797   2.4663   3.1097   3.6470   4.7194
     4.9195   5.6788   5.9728   5.9767

     the Fermi energy is     0.9539 ev

!    total energy              =    -758.47669737 Ry
     estimated scf accuracy    <       0.00000053 Ry
     smearing contrib. (-TS)   =      -0.00074857 Ry
     internal energy E=F+TS    =    -758.47594879 Ry

     The total energy is F=E-TS. E is the sum of the following terms:
     one-electron contribution =   -7384.89329117 Ry
     hartree contribution      =    3760.50337619 Ry
     xc contribution           =    -200.68007648 Ry
     ewald contribution        =    3066.80915465 Ry
     DFT-D3 Dispersion         =      -0.21511199 Ry

     convergence has been achieved in   9 iterations

     negative rho (up, down):  2.995E-05 0.000E+00

     Forces acting on atoms (cartesian axes, Ry/au):

     atom    1 type  1   force =    -0.00000993    0.00000135   -0.00012157
     atom    2 type  1   force =    -0.00134770    0.00077811   -0.01866533
     atom    3 type  1   force =    -0.00000801    0.00000337   -0.00012531
     atom    4 type  1   force =     0.00060094   -0.00034785    0.00833447
     atom    5 type  1   force =     0.00000726   -0.00000213    0.00011235
     atom    6 type  1   force =     0.00000159   -0.00000023    0.00000771
     atom    7 type  1   force =     0.00000851   -0.00000043    0.00009377
     atom    8 type  1   force =    -0.00060178    0.00034644   -0.00832813
     atom    9 type  1   force =     0.00134912   -0.00077863    0.01869205
     The non-local contrib.  to forces
     atom    1 type  1   force =     0.00255716   -0.00148280    0.03554264
     atom    2 type  1   force =     0.01282410   -0.00743439    0.17816825
     atom    3 type  1   force =     0.00192501   -0.00111746    0.02674094
     atom    4 type  1   force =     0.00209686   -0.00121547    0.02913480
     atom    5 type  1   force =    -0.00193464    0.00112197   -0.02688312
     atom    6 type  1   force =    -0.00000194    0.00000150   -0.00006851
     atom    7 type  1   force =    -0.00256114    0.00148711   -0.03564883
     atom    8 type  1   force =    -0.00210368    0.00121596   -0.02921882
     atom    9 type  1   force =    -0.01282296    0.00743373   -0.17820896
     The ionic contribution  to forces
     atom    1 type  1   force =     6.50635078   -3.76941904   90.38911381
     atom    2 type  1   force =     8.02733041   -4.65059034  111.51923815
     atom    3 type  1   force =     2.18749946   -1.26731595   30.38971373
     atom    4 type  1   force =     4.51124728   -2.61356664   62.67225009
     atom    5 type  1   force =    -2.18749946    1.26731595  -30.38971373
     atom    6 type  1   force =    -0.00000000   -0.00000000    0.00000000
     atom    7 type  1   force =    -6.50635078    3.76941904  -90.38911381
     atom    8 type  1   force =    -4.51124728    2.61356664  -62.67225009
     atom    9 type  1   force =    -8.02733041    4.65059034 -111.51923815
     The local contribution  to forces
     atom    1 type  1   force =    -6.50858122    3.77071355  -90.42008553
     atom    2 type  1   force =    -8.04119645    4.65862534 -111.71190727
     atom    3 type  1   force =    -2.18920613    1.26831067  -30.41338933
     atom    4 type  1   force =    -4.51221987    2.61412804  -62.68579259
     atom    5 type  1   force =     2.18919738   -1.26830141   30.41328705
     atom    6 type  1   force =    -0.00000442    0.00000023   -0.00004308
     atom    7 type  1   force =     6.50859083   -3.77071558   90.42024145
     atom    8 type  1   force =     4.51222046   -2.61413028   62.68578707
     atom    9 type  1   force =     8.04120344   -4.65863028  111.71200572
     The core correction contribution to forces
     atom    1 type  1   force =    -0.00022581    0.00013085   -0.00313543
     atom    2 type  1   force =    -0.00032129    0.00018615   -0.00446689
     atom    3 type  1   force =    -0.00000022    0.00000028   -0.00000113
     atom    4 type  1   force =    -0.00021117    0.00012234   -0.00293359
     atom    5 type  1   force =     0.00000001   -0.00000007   -0.00000150
     atom    6 type  1   force =    -0.00000005   -0.00000011    0.00000098
     atom    7 type  1   force =     0.00022617   -0.00013078    0.00314124
     atom    8 type  1   force =     0.00021114   -0.00012238    0.00293292
     atom    9 type  1   force =     0.00032154   -0.00018642    0.00446907
     The Hubbard contrib.    to forces
     atom    1 type  1   force =     0.00000000    0.00000000    0.00000000
     atom    2 type  1   force =     0.00000000    0.00000000    0.00000000
     atom    3 type  1   force =     0.00000000    0.00000000    0.00000000
     atom    4 type  1   force =     0.00000000    0.00000000    0.00000000
     atom    5 type  1   force =     0.00000000    0.00000000    0.00000000
     atom    6 type  1   force =     0.00000000    0.00000000    0.00000000
     atom    7 type  1   force =     0.00000000    0.00000000    0.00000000
     atom    8 type  1   force =     0.00000000    0.00000000    0.00000000
     atom    9 type  1   force =     0.00000000    0.00000000    0.00000000
     The SCF correction term to forces
     atom    1 type  1   force =    -0.00002506    0.00000894   -0.00037712
     atom    2 type  1   force =     0.00005224   -0.00003007    0.00080053
     atom    3 type  1   force =     0.00000000   -0.00000000    0.00000000
     atom    4 type  1   force =    -0.00002834    0.00001932   -0.00039334
     atom    5 type  1   force =     0.00000000   -0.00000000    0.00000000
     atom    6 type  1   force =     0.00000000   -0.00000000    0.00000000
     atom    7 type  1   force =     0.00000000   -0.00000000    0.00000000
     atom    8 type  1   force =     0.00000000   -0.00000000    0.00000000
     atom    9 type  1   force =    -0.00000000    0.00000000   -0.00000000

     DFT-D3 dispersion contribution to forces:
     atom    1 type  1   force =    -0.00008838    0.00005120   -0.00122784
     atom    2 type  1   force =    -0.00003930    0.00002277   -0.00054600
     atom    3 type  1   force =    -0.00023399    0.00013556   -0.00325073
     atom    4 type  1   force =    -0.00028640    0.00016592   -0.00397880
     atom    5 type  1   force =     0.00023399   -0.00013556    0.00325073
     atom    6 type  1   force =     0.00000000    0.00000000   -0.00000000
     atom    7 type  1   force =     0.00008838   -0.00005120    0.00122784
     atom    8 type  1   force =     0.00028640   -0.00016592    0.00397880
     atom    9 type  1   force =     0.00003930   -0.00002277    0.00054600

     Total force =     0.020513     Total SCF correction =     0.000971


     Computing stress (Cartesian axis) and pressure


     negative rho (up, down):  2.995E-05 0.000E+00
          total   stress  (Ry/bohr**3)                   (kbar)     P=      -19.55
  -0.00014852  -0.00000014   0.00000340          -21.85       -0.02        0.50
  -0.00000014  -0.00014867  -0.00000197           -0.02      -21.87       -0.29
   0.00000340  -0.00000197  -0.00010158            0.50       -0.29      -14.94


     BFGS Geometry Optimization
     Energy error            =      0.0E+00 Ry
     Gradient error          =      1.9E-02 Ry/Bohr

     number of scf cycles    =   1
     number of bfgs steps    =   0

     energy             new  =    -758.4766973662 Ry

     new trust radius        =       0.0187300939 bohr
     new conv_thr            =       0.0000010000 Ry


ATOMIC_POSITIONS (angstrom)
Ag            4.4973653179        3.2574939781       16.3879710430
Ag            4.5571601466        0.5168436156       17.2186890776
Ag            4.3521639913        0.6356084416       14.3707610469    0   0   0
Ag            2.0896794015        1.9463667782       15.5519148162
Ag            1.8836520704        2.0657274352       12.6896991058    0   0   0
Ag            4.2916612481        3.3766698460       13.5302300763    0   0   0
Ag            4.0859519214        3.4958464288       10.6724247764    0   0   0
Ag            4.1464546645        0.7547850244       11.5129557470    0   0   0
Ag            1.6779427436        2.1849040180        9.8318938059    0   0   0



     Writing config-only to output data dir ./Ag_111/Ag_111.save/
     NEW-OLD atomic charge density approx. for the potential

     negative rho (up, down):  3.054E-05 0.000E+00

     total cpu time spent up to now is       36.0 secs

     per-process dynamical memory:   200.2 Mb

     Self-consistent Calculation

     iteration #  1     ecut=    55.00 Ry     beta= 0.30
     Davidson diagonalization with overlap
     ethr =  1.00E-06,  avg # of iterations =  4.0

     Threshold (ethr) on eigenvalues was too large:
     Diagonalizing with lowered threshold

     Davidson diagonalization with overlap
     ethr =  6.35E-09,  avg # of iterations =  5.5

     negative rho (up, down):  3.035E-05 0.000E+00

     total cpu time spent up to now is       41.2 secs

     total energy              =    -758.47711291 Ry
     estimated scf accuracy    <       0.00000915 Ry

     iteration #  2     ecut=    55.00 Ry     beta= 0.30
     Davidson diagonalization with overlap
     ethr =  9.24E-09,  avg # of iterations =  2.0

     negative rho (up, down):  3.029E-05 0.000E+00

     total cpu time spent up to now is       42.6 secs

     total energy              =    -758.47711186 Ry
     estimated scf accuracy    <       0.00002111 Ry

     iteration #  3     ecut=    55.00 Ry     beta= 0.30
     Davidson diagonalization with overlap
     ethr =  9.24E-09,  avg # of iterations =  1.3

     negative rho (up, down):  3.022E-05 0.000E+00

     total cpu time spent up to now is       43.9 secs

     total energy              =    -758.47711372 Ry
     estimated scf accuracy    <       0.00001690 Ry

     iteration #  4     ecut=    55.00 Ry     beta= 0.30
     Davidson diagonalization with overlap
     ethr =  9.24E-09,  avg # of iterations =  1.0

     negative rho (up, down):  3.009E-05 0.000E+00

     total cpu time spent up to now is       44.9 secs

     End of self-consistent calculation

          k = 0.0000 0.0000 0.0000 ( 24179 PWs)   bands (ev):

    -5.9534  -4.8287  -4.8286  -4.8156  -4.2821  -4.2821  -4.2327  -4.1845
    -4.1418  -4.1418  -4.1357  -4.1356  -3.8918  -3.8917  -3.8764  -3.8406
    -3.8406  -3.7547  -3.7547  -3.4685  -3.4446  -3.3763  -3.3763  -3.3056
    -3.3056  -3.2997  -2.8693  -2.5959  -2.5959  -2.5794  -2.5411  -2.5411
    -2.4830  -2.4830  -2.4577  -2.4577  -2.4017  -2.4016  -2.3587  -2.3587
    -2.2814  -2.2813  -2.1703  -2.0372  -2.0372  -1.8930  -1.8930  -1.1984
     0.6207   2.6554   4.4199   4.8781   5.5649   5.5919   5.8227   5.8227
     5.9196   5.9196   6.1872   6.1896

          k = 0.0000 0.1445 0.0000 ( 24156 PWs)   bands (ev):

    -5.7998  -4.7874  -4.7675  -4.7650  -4.3920  -4.3460  -4.2966  -4.2627
    -4.2323  -4.1448  -4.1134  -4.0365  -3.9768  -3.9681  -3.7950  -3.7687
    -3.7253  -3.7125  -3.5947  -3.4900  -3.3495  -3.3397  -3.3285  -3.2537
    -3.2059  -3.1912  -2.8444  -2.6901  -2.6349  -2.5837  -2.5462  -2.5171
    -2.5167  -2.4910  -2.4723  -2.4542  -2.4264  -2.4095  -2.3644  -2.3568
    -2.3245  -2.3243  -2.1914  -2.1058  -2.0468  -1.9598  -1.8669  -1.1269
     0.7434   2.7751   3.6028   4.3686   4.5307   4.6296   5.0229   5.4480
     5.5615   5.6564   5.7401   6.0202

          k = 0.0000 0.2889 0.0000 ( 24139 PWs)   bands (ev):

    -5.3739  -4.7527  -4.6416  -4.5844  -4.5467  -4.4884  -4.3460  -4.3386
    -4.2283  -4.1634  -4.0686  -4.0268  -3.9546  -3.9027  -3.8065  -3.7786
    -3.6066  -3.5815  -3.5656  -3.3410  -3.3190  -3.2261  -3.1937  -3.1062
    -3.0565  -2.8997  -2.8357  -2.7690  -2.7036  -2.6490  -2.6200  -2.5838
    -2.5502  -2.5203  -2.5121  -2.4753  -2.4693  -2.4075  -2.3749  -2.3573
    -2.3354  -2.3034  -2.2457  -2.1440  -2.0869  -2.0818  -1.8171  -0.8503
     1.1156   1.5041   2.5854   3.0871   3.1148   4.0845   4.5530   4.9400
     5.1126   5.4345   5.7760   6.0050

          k = 0.0000 0.4334 0.0000 ( 24088 PWs)   bands (ev):

    -4.9014  -4.7720  -4.7307  -4.4507  -4.3788  -4.3590  -4.3187  -4.2778
    -4.2022  -4.1598  -4.1071  -3.9886  -3.9446  -3.8876  -3.7849  -3.7172
    -3.6552  -3.6150  -3.4839  -3.3392  -3.2620  -3.2480  -3.2143  -3.1103
    -3.0314  -2.8718  -2.8680  -2.7724  -2.6899  -2.6871  -2.6527  -2.6314
    -2.5434  -2.5334  -2.5170  -2.4908  -2.4338  -2.3984  -2.3755  -2.3145
    -2.2987  -2.2319  -2.1469  -2.0413  -2.0309  -1.8032  -1.7743  -0.3230
    -0.2022   0.7976   1.8200   2.1472   2.3908   3.4870   3.8802   4.7182
     4.9799   5.6641   5.8603   6.1148

          k = 0.0000-0.5778 0.0000 ( 24060 PWs)   bands (ev):

    -4.9017  -4.8448  -4.4112  -4.3859  -4.3104  -4.2824  -4.2426  -4.2372
    -4.1693  -4.0686  -4.0487  -4.0388  -4.0210  -3.9194  -3.8438  -3.7654
    -3.6535  -3.6036  -3.4590  -3.3617  -3.3384  -3.2788  -3.2657  -3.1402
    -3.0587  -2.8555  -2.8553  -2.7404  -2.7385  -2.7340  -2.6315  -2.6282
    -2.6077  -2.5308  -2.5210  -2.4895  -2.4549  -2.4042  -2.4022  -2.2942
    -2.1983  -2.1692  -1.9646  -1.8909  -1.7419  -1.6935  -1.5629  -0.7943
    -0.6746   0.7162   1.1747   1.7776   2.4702   3.1136   3.6416   4.7262
     4.9182   5.6779   5.9722   5.9796

          k = 0.1253-0.0726 0.0000 ( 24146 PWs)   bands (ev):

    -5.7998  -4.7874  -4.7674  -4.7650  -4.3919  -4.3460  -4.2965  -4.2627
    -4.2323  -4.1448  -4.1134  -4.0365  -3.9768  -3.9682  -3.7950  -3.7687
    -3.7253  -3.7125  -3.5947  -3.4900  -3.3495  -3.3397  -3.3285  -3.2537
    -3.2059  -3.1912  -2.8444  -2.6902  -2.6349  -2.5837  -2.5462  -2.5170
    -2.5167  -2.4910  -2.4723  -2.4542  -2.4263  -2.4095  -2.3644  -2.3568
    -2.3244  -2.3242  -2.1913  -2.1058  -2.0468  -1.9598  -1.8669  -1.1269
     0.7434   2.7751   3.6028   4.3686   4.5300   4.6300   5.0257   5.4493
     5.5615   5.6270   5.7621   6.0291

          k = 0.1253 0.0719 0.0000 ( 24156 PWs)   bands (ev):

    -5.7998  -4.7874  -4.7675  -4.7650  -4.3920  -4.3460  -4.2966  -4.2627
    -4.2323  -4.1448  -4.1134  -4.0365  -3.9768  -3.9681  -3.7950  -3.7687
    -3.7253  -3.7125  -3.5947  -3.4900  -3.3495  -3.3397  -3.3285  -3.2537
    -3.2059  -3.1912  -2.8444  -2.6901  -2.6349  -2.5837  -2.5462  -2.5171
    -2.5167  -2.4910  -2.4723  -2.4542  -2.4264  -2.4095  -2.3644  -2.3568
    -2.3245  -2.3243  -2.1914  -2.1058  -2.0468  -1.9598  -1.8669  -1.1269
     0.7434   2.7751   3.6028   4.3686   4.5307   4.6296   5.0229   5.4480
     5.5615   5.6564   5.7401   6.0202

          k = 0.1253 0.2163 0.0000 ( 24149 PWs)   bands (ev):

    -5.5103  -4.7388  -4.6572  -4.6536  -4.5179  -4.4308  -4.3755  -4.3481
    -4.2009  -4.1770  -4.1274  -4.0052  -4.0014  -3.9190  -3.7997  -3.7588
    -3.7273  -3.5118  -3.4853  -3.3599  -3.2985  -3.2797  -3.2608  -3.1339
    -3.0459  -3.0104  -2.8360  -2.7529  -2.7192  -2.6355  -2.6095  -2.5806
    -2.5483  -2.5254  -2.4970  -2.4955  -2.4291  -2.4206  -2.3638  -2.3408
    -2.3153  -2.3150  -2.2451  -2.2086  -2.0805  -1.9212  -1.9112  -0.9497
     0.9977   2.4930   2.5527   3.0222   3.5728   3.7645   4.7201   5.1167
     5.3107   5.4122   5.9960   6.0636

          k = 0.1253 0.3608 0.0000 ( 24102 PWs)   bands (ev):

    -5.0310  -4.7300  -4.6527  -4.5416  -4.4603  -4.4474  -4.4151  -4.3109
    -4.2639  -4.1716  -4.0787  -3.9743  -3.9376  -3.8759  -3.8003  -3.7644
    -3.7100  -3.4851  -3.4272  -3.3113  -3.2526  -3.1681  -3.1083  -3.0394
    -2.9875  -2.8926  -2.8577  -2.8267  -2.7160  -2.7058  -2.6708  -2.6397
    -2.5514  -2.5384  -2.5289  -2.5167  -2.5022  -2.4234  -2.3721  -2.3477
    -2.3183  -2.2178  -2.1629  -2.1423  -1.9996  -1.9719  -1.8632  -0.4798
     0.5829   1.4543   1.6451   1.8124   2.9270   3.3140   3.5756   4.5859
     5.2981   5.7577   5.9434   6.2522

          k = 0.1253-0.6505 0.0000 ( 24065 PWs)   bands (ev):

    -4.8323  -4.7898  -4.5721  -4.4268  -4.3900  -4.3252  -4.2842  -4.2364
    -4.2101  -4.1831  -4.0654  -3.9888  -3.8744  -3.8485  -3.7824  -3.7539
    -3.6649  -3.5790  -3.4943  -3.3959  -3.3121  -3.1820  -3.1017  -3.0282
    -2.9787  -2.9467  -2.8818  -2.8233  -2.7203  -2.6844  -2.6683  -2.6405
    -2.5746  -2.5602  -2.5306  -2.5062  -2.4780  -2.4552  -2.4124  -2.3102
    -2.1302  -2.0964  -2.0668  -1.9635  -1.9020  -1.8310  -1.2767  -0.9705
    -0.0179   0.5229   1.0109   1.7811   2.3455   2.6582   3.4399   4.4531
     4.8089   6.0257   6.2133   6.4104

          k = 0.1253-0.5060 0.0000 ( 24070 PWs)   bands (ev):

    -4.8324  -4.7897  -4.5721  -4.4268  -4.3900  -4.3252  -4.2842  -4.2365
    -4.2102  -4.1831  -4.0654  -3.9888  -3.8744  -3.8485  -3.7824  -3.7539
    -3.6649  -3.5790  -3.4943  -3.3959  -3.3121  -3.1820  -3.1017  -3.0282
    -2.9787  -2.9467  -2.8819  -2.8234  -2.7203  -2.6844  -2.6683  -2.6405
    -2.5746  -2.5602  -2.5306  -2.5062  -2.4780  -2.4552  -2.4124  -2.3103
    -2.1302  -2.0963  -2.0668  -1.9635  -1.9020  -1.8310  -1.2767  -0.9705
    -0.0179   0.5228   1.0109   1.7811   2.3455   2.6582   3.4399   4.4531
     4.8089   6.0257   6.2133   6.4053

          k = 0.1253-0.3615 0.0000 ( 24099 PWs)   bands (ev):

    -5.0310  -4.7300  -4.6527  -4.5416  -4.4603  -4.4474  -4.4151  -4.3110
    -4.2639  -4.1716  -4.0787  -3.9743  -3.9375  -3.8758  -3.8003  -3.7644
    -3.7100  -3.4851  -3.4272  -3.3113  -3.2526  -3.1681  -3.1083  -3.0394
    -2.9875  -2.8925  -2.8577  -2.8267  -2.7160  -2.7058  -2.6707  -2.6397
    -2.5514  -2.5384  -2.5289  -2.5167  -2.5021  -2.4234  -2.3721  -2.3477
    -2.3182  -2.2178  -2.1629  -2.1423  -1.9996  -1.9719  -1.8632  -0.4798
     0.5828   1.4543   1.6451   1.8124   2.9270   3.3140   3.5756   4.5859
     5.2979   5.7443   5.9833   6.2558

          k = 0.1253-0.2171 0.0000 ( 24155 PWs)   bands (ev):

    -5.5103  -4.7388  -4.6572  -4.6536  -4.5179  -4.4308  -4.3755  -4.3482
    -4.2009  -4.1770  -4.1274  -4.0052  -4.0014  -3.9190  -3.7996  -3.7587
    -3.7273  -3.5118  -3.4852  -3.3599  -3.2985  -3.2797  -3.2608  -3.1339
    -3.0459  -3.0104  -2.8360  -2.7529  -2.7192  -2.6355  -2.6096  -2.5806
    -2.5483  -2.5254  -2.4970  -2.4955  -2.4291  -2.4205  -2.3639  -2.3408
    -2.3153  -2.3150  -2.2451  -2.2086  -2.0805  -1.9212  -1.9112  -0.9497
     0.9977   2.4930   2.5527   3.0222   3.5728   3.7644   4.7194   5.1169
     5.3151   5.4157   5.9147   6.1507

          k = 0.2506-0.1452 0.0000 ( 24164 PWs)   bands (ev):

    -5.3739  -4.7527  -4.6416  -4.5844  -4.5467  -4.4884  -4.3460  -4.3386
    -4.2283  -4.1634  -4.0686  -4.0268  -3.9547  -3.9027  -3.8066  -3.7786
    -3.6067  -3.5815  -3.5657  -3.3411  -3.3190  -3.2261  -3.1937  -3.1062
    -3.0564  -2.8997  -2.8357  -2.7691  -2.7037  -2.6491  -2.6200  -2.5838
    -2.5503  -2.5203  -2.5121  -2.4753  -2.4693  -2.4075  -2.3749  -2.3573
    -2.3354  -2.3034  -2.2457  -2.1440  -2.0869  -2.0818  -1.8172  -0.8504
     1.1156   1.5041   2.5854   3.0871   3.1148   4.0845   4.5530   4.9381
     5.1125   5.4518   5.7913   5.8744

          k = 0.2506-0.0007 0.0000 ( 24155 PWs)   bands (ev):

    -5.5103  -4.7388  -4.6572  -4.6536  -4.5179  -4.4308  -4.3755  -4.3482
    -4.2009  -4.1770  -4.1274  -4.0052  -4.0014  -3.9190  -3.7996  -3.7587
    -3.7273  -3.5118  -3.4852  -3.3599  -3.2985  -3.2797  -3.2608  -3.1339
    -3.0459  -3.0104  -2.8360  -2.7529  -2.7192  -2.6355  -2.6096  -2.5806
    -2.5483  -2.5254  -2.4970  -2.4955  -2.4291  -2.4205  -2.3639  -2.3408
    -2.3153  -2.3150  -2.2451  -2.2086  -2.0805  -1.9212  -1.9112  -0.9497
     0.9977   2.4930   2.5527   3.0222   3.5728   3.7645   4.7194   5.1169
     5.3151   5.4157   5.9147   6.1507

          k = 0.2506 0.1437 0.0000 ( 24139 PWs)   bands (ev):

    -5.3739  -4.7527  -4.6416  -4.5844  -4.5467  -4.4884  -4.3460  -4.3386
    -4.2283  -4.1634  -4.0686  -4.0268  -3.9546  -3.9027  -3.8065  -3.7786
    -3.6066  -3.5815  -3.5656  -3.3410  -3.3190  -3.2261  -3.1937  -3.1062
    -3.0565  -2.8997  -2.8357  -2.7690  -2.7036  -2.6490  -2.6200  -2.5838
    -2.5502  -2.5203  -2.5121  -2.4753  -2.4693  -2.4075  -2.3749  -2.3573
    -2.3354  -2.3034  -2.2457  -2.1440  -2.0869  -2.0818  -1.8171  -0.8503
     1.1156   1.5041   2.5854   3.0871   3.1148   4.0845   4.5530   4.9400
     5.1126   5.4345   5.7762   6.0050

          k = 0.2506 0.2882 0.0000 ( 24102 PWs)   bands (ev):

    -5.0310  -4.7300  -4.6527  -4.5416  -4.4603  -4.4474  -4.4151  -4.3109
    -4.2639  -4.1716  -4.0787  -3.9743  -3.9375  -3.8759  -3.8003  -3.7644
    -3.7100  -3.4851  -3.4272  -3.3113  -3.2526  -3.1681  -3.1083  -3.0394
    -2.9875  -2.8926  -2.8577  -2.8267  -2.7160  -2.7058  -2.6708  -2.6397
    -2.5514  -2.5384  -2.5289  -2.5167  -2.5022  -2.4234  -2.3721  -2.3477
    -2.3183  -2.2178  -2.1629  -2.1423  -1.9996  -1.9719  -1.8632  -0.4798
     0.5829   1.4543   1.6451   1.8124   2.9270   3.3140   3.5756   4.5859
     5.2981   5.7577   5.9434   6.2522

          k = 0.2506-0.7231 0.0000 ( 24086 PWs)   bands (ev):

    -4.7208  -4.6566  -4.6513  -4.6016  -4.5589  -4.3476  -4.3344  -4.2635
    -4.1579  -4.0895  -4.0805  -3.9422  -3.9252  -3.8875  -3.8375  -3.7836
    -3.6446  -3.4694  -3.3765  -3.3513  -3.2286  -3.1494  -3.0784  -2.9774
    -2.9729  -2.8914  -2.8649  -2.8257  -2.7297  -2.7199  -2.6760  -2.6509
    -2.6209  -2.5667  -2.5597  -2.5556  -2.5241  -2.4103  -2.3297  -2.2990
    -2.2897  -2.0971  -2.0510  -1.9748  -1.9584  -1.8941  -1.4264  -0.1762
    -0.1000   0.2442   1.1088   1.3582   2.3100   3.0016   3.0051   3.8071
     4.7537   5.8881   6.3089   6.6568

          k = 0.2506-0.5786 0.0000 ( 24049 PWs)   bands (ev):

    -4.7188  -4.6825  -4.6110  -4.5729  -4.4400  -4.4108  -4.2610  -4.1932
    -4.1875  -4.0519  -4.0479  -4.0232  -3.9008  -3.7840  -3.7706  -3.7475
    -3.6647  -3.6015  -3.4998  -3.2943  -3.2253  -3.1180  -3.0850  -2.9855
    -2.9625  -2.8728  -2.8147  -2.8012  -2.7738  -2.7615  -2.7120  -2.6516
    -2.6382  -2.6113  -2.5730  -2.5579  -2.4519  -2.3778  -2.3606  -2.1909
    -2.1111  -2.0783  -1.9125  -1.8787  -1.8563  -1.6022  -1.4980  -0.5689
    -0.2789  -0.2363   0.8420   1.5818   1.6589   2.8556   3.1180   3.5517
     4.2827   6.1888   6.3256   7.1981

          k = 0.2506-0.4341 0.0000 ( 24068 PWs)   bands (ev):

    -4.7208  -4.6565  -4.6513  -4.6015  -4.5588  -4.3476  -4.3344  -4.2635
    -4.1579  -4.0894  -4.0805  -3.9422  -3.9252  -3.8874  -3.8375  -3.7836
    -3.6446  -3.4694  -3.3765  -3.3513  -3.2285  -3.1494  -3.0783  -2.9774
    -2.9729  -2.8913  -2.8649  -2.8257  -2.7297  -2.7198  -2.6760  -2.6509
    -2.6209  -2.5667  -2.5597  -2.5555  -2.5241  -2.4103  -2.3297  -2.2989
    -2.2897  -2.0972  -2.0510  -1.9748  -1.9584  -1.8941  -1.4263  -0.1762
    -0.1000   0.2442   1.1089   1.3582   2.3100   3.0016   3.0051   3.8071
     4.7537   5.8890   6.2961   6.7051

          k = 0.2506-0.2897 0.0000 ( 24092 PWs)   bands (ev):

    -5.0310  -4.7300  -4.6527  -4.5416  -4.4603  -4.4474  -4.4151  -4.3109
    -4.2639  -4.1716  -4.0787  -3.9743  -3.9375  -3.8758  -3.8003  -3.7644
    -3.7100  -3.4851  -3.4272  -3.3113  -3.2526  -3.1681  -3.1083  -3.0394
    -2.9875  -2.8925  -2.8577  -2.8267  -2.7160  -2.7058  -2.6707  -2.6397
    -2.5514  -2.5384  -2.5289  -2.5167  -2.5021  -2.4234  -2.3721  -2.3477
    -2.3182  -2.2178  -2.1629  -2.1423  -1.9996  -1.9719  -1.8632  -0.4798
     0.5829   1.4543   1.6451   1.8124   2.9270   3.3140   3.5756   4.5859
     5.2956   5.7921   5.9022   6.2451

          k = 0.3760-0.2178 0.0000 ( 24082 PWs)   bands (ev):

    -4.9013  -4.7720  -4.7307  -4.4507  -4.3788  -4.3590  -4.3187  -4.2778
    -4.2022  -4.1598  -4.1071  -3.9886  -3.9446  -3.8877  -3.7849  -3.7172
    -3.6552  -3.6150  -3.4839  -3.3392  -3.2620  -3.2479  -3.2143  -3.1103
    -3.0315  -2.8718  -2.8680  -2.7723  -2.6899  -2.6871  -2.6527  -2.6313
    -2.5435  -2.5334  -2.5169  -2.4908  -2.4338  -2.3984  -2.3755  -2.3144
    -2.2988  -2.2319  -2.1469  -2.0413  -2.0309  -1.8032  -1.7744  -0.3230
    -0.2022   0.7976   1.8200   2.1472   2.3908   3.4870   3.8802   4.7181
     4.9798   5.6633   5.8662   6.1148

          k = 0.3760-0.0734 0.0000 ( 24092 PWs)   bands (ev):

    -5.0310  -4.7300  -4.6527  -4.5416  -4.4603  -4.4474  -4.4151  -4.3109
    -4.2639  -4.1716  -4.0787  -3.9743  -3.9375  -3.8758  -3.8003  -3.7644
    -3.7100  -3.4851  -3.4272  -3.3113  -3.2526  -3.1681  -3.1083  -3.0394
    -2.9875  -2.8925  -2.8577  -2.8267  -2.7160  -2.7058  -2.6707  -2.6397
    -2.5514  -2.5384  -2.5289  -2.5167  -2.5021  -2.4234  -2.3721  -2.3477
    -2.3182  -2.2178  -2.1629  -2.1423  -1.9996  -1.9719  -1.8632  -0.4798
     0.5829   1.4543   1.6451   1.8124   2.9270   3.3140   3.5756   4.5859
     5.2956   5.7921   5.9022   6.2453

          k = 0.3760 0.0711 0.0000 ( 24099 PWs)   bands (ev):

    -5.0310  -4.7300  -4.6527  -4.5416  -4.4603  -4.4474  -4.4151  -4.3110
    -4.2639  -4.1716  -4.0787  -3.9743  -3.9375  -3.8758  -3.8003  -3.7644
    -3.7100  -3.4851  -3.4272  -3.3113  -3.2526  -3.1681  -3.1083  -3.0394
    -2.9875  -2.8925  -2.8577  -2.8267  -2.7160  -2.7058  -2.6707  -2.6397
    -2.5514  -2.5384  -2.5289  -2.5167  -2.5021  -2.4234  -2.3721  -2.3477
    -2.3182  -2.2178  -2.1629  -2.1423  -1.9996  -1.9719  -1.8632  -0.4798
     0.5828   1.4543   1.6451   1.8124   2.9270   3.3140   3.5756   4.5859
     5.2979   5.7443   5.9833   6.2555

          k = 0.3760 0.2156 0.0000 ( 24088 PWs)   bands (ev):

    -4.9014  -4.7720  -4.7307  -4.4507  -4.3788  -4.3590  -4.3187  -4.2778
    -4.2022  -4.1598  -4.1071  -3.9886  -3.9446  -3.8876  -3.7849  -3.7172
    -3.6552  -3.6151  -3.4839  -3.3392  -3.2620  -3.2480  -3.2143  -3.1103
    -3.0314  -2.8718  -2.8680  -2.7724  -2.6899  -2.6871  -2.6527  -2.6314
    -2.5434  -2.5334  -2.5170  -2.4908  -2.4338  -2.3984  -2.3755  -2.3145
    -2.2987  -2.2319  -2.1469  -2.0413  -2.0309  -1.8032  -1.7743  -0.3230
    -0.2022   0.7976   1.8200   2.1472   2.3908   3.4870   3.8802   4.7182
     4.9799   5.6641   5.8600   6.1148

          k = 0.3760-0.7957 0.0000 ( 24065 PWs)   bands (ev):

    -4.8323  -4.7898  -4.5721  -4.4268  -4.3900  -4.3252  -4.2842  -4.2364
    -4.2101  -4.1831  -4.0654  -3.9888  -3.8744  -3.8485  -3.7824  -3.7539
    -3.6649  -3.5790  -3.4943  -3.3959  -3.3121  -3.1820  -3.1017  -3.0282
    -2.9787  -2.9467  -2.8818  -2.8233  -2.7203  -2.6844  -2.6683  -2.6405
    -2.5746  -2.5602  -2.5306  -2.5062  -2.4780  -2.4552  -2.4124  -2.3102
    -2.1302  -2.0964  -2.0668  -1.9635  -1.9020  -1.8310  -1.2767  -0.9705
    -0.0179   0.5229   1.0109   1.7811   2.3455   2.6582   3.4399   4.4531
     4.8089   6.0257   6.2133   6.4104

          k = 0.3760-0.6512 0.0000 ( 24049 PWs)   bands (ev):

    -4.7188  -4.6825  -4.6110  -4.5729  -4.4400  -4.4108  -4.2610  -4.1932
    -4.1875  -4.0519  -4.0479  -4.0232  -3.9008  -3.7840  -3.7706  -3.7475
    -3.6647  -3.6015  -3.4998  -3.2943  -3.2253  -3.1180  -3.0850  -2.9855
    -2.9625  -2.8728  -2.8147  -2.8012  -2.7738  -2.7615  -2.7120  -2.6516
    -2.6382  -2.6113  -2.5730  -2.5579  -2.4519  -2.3778  -2.3606  -2.1909
    -2.1111  -2.0783  -1.9125  -1.8787  -1.8563  -1.6022  -1.4980  -0.5689
    -0.2789  -0.2363   0.8420   1.5818   1.6589   2.8556   3.1180   3.5517
     4.2827   6.1888   6.3256   7.1975

          k = 0.3760-0.5067 0.0000 ( 24032 PWs)   bands (ev):

    -4.7188  -4.6825  -4.6110  -4.5729  -4.4400  -4.4108  -4.2610  -4.1932
    -4.1874  -4.0519  -4.0479  -4.0232  -3.9008  -3.7839  -3.7706  -3.7475
    -3.6646  -3.6014  -3.4997  -3.2943  -3.2253  -3.1179  -3.0850  -2.9855
    -2.9625  -2.8728  -2.8147  -2.8011  -2.7738  -2.7615  -2.7120  -2.6515
    -2.6382  -2.6113  -2.5730  -2.5579  -2.4519  -2.3778  -2.3605  -2.1909
    -2.1111  -2.0783  -1.9125  -1.8787  -1.8563  -1.6022  -1.4980  -0.5689
    -0.2789  -0.2363   0.8420   1.5818   1.6589   2.8556   3.1181   3.5517
     4.2827   6.1889   6.3256   7.1908

          k = 0.3760-0.3623 0.0000 ( 24075 PWs)   bands (ev):

    -4.8324  -4.7897  -4.5721  -4.4268  -4.3900  -4.3252  -4.2842  -4.2364
    -4.2102  -4.1831  -4.0654  -3.9888  -3.8744  -3.8485  -3.7824  -3.7539
    -3.6650  -3.5790  -3.4943  -3.3959  -3.3121  -3.1820  -3.1017  -3.0282
    -2.9787  -2.9467  -2.8818  -2.8233  -2.7203  -2.6844  -2.6683  -2.6405
    -2.5746  -2.5602  -2.5306  -2.5062  -2.4780  -2.4552  -2.4124  -2.3102
    -2.1302  -2.0964  -2.0668  -1.9636  -1.9020  -1.8310  -1.2767  -0.9705
    -0.0179   0.5228   1.0109   1.7811   2.3455   2.6582   3.4399   4.4531
     4.8089   6.0258   6.2169   6.3961

          k =-0.5013 0.2904 0.0000 ( 24044 PWs)   bands (ev):

    -4.9016  -4.8448  -4.4111  -4.3859  -4.3104  -4.2824  -4.2426  -4.2372
    -4.1693  -4.0686  -4.0487  -4.0388  -4.0210  -3.9194  -3.8438  -3.7654
    -3.6535  -3.6036  -3.4590  -3.3617  -3.3384  -3.2788  -3.2657  -3.1402
    -3.0587  -2.8555  -2.8552  -2.7403  -2.7385  -2.7340  -2.6316  -2.6282
    -2.6076  -2.5309  -2.5209  -2.4895  -2.4549  -2.4043  -2.4022  -2.2942
    -2.1982  -2.1692  -1.9646  -1.8909  -1.7419  -1.6935  -1.5628  -0.7943
    -0.6746   0.7162   1.1747   1.7776   2.4702   3.1136   3.6416   4.7262
     4.9181   5.6779   5.9723   5.9795

          k =-0.5013 0.4349 0.0000 ( 24075 PWs)   bands (ev):

    -4.8324  -4.7897  -4.5721  -4.4268  -4.3900  -4.3252  -4.2842  -4.2364
    -4.2102  -4.1831  -4.0654  -3.9888  -3.8744  -3.8485  -3.7824  -3.7539
    -3.6650  -3.5790  -3.4943  -3.3959  -3.3121  -3.1820  -3.1017  -3.0282
    -2.9787  -2.9467  -2.8818  -2.8233  -2.7203  -2.6844  -2.6683  -2.6405
    -2.5746  -2.5602  -2.5306  -2.5062  -2.4780  -2.4552  -2.4124  -2.3102
    -2.1302  -2.0964  -2.0668  -1.9636  -1.9020  -1.8310  -1.2767  -0.9705
    -0.0179   0.5228   1.0109   1.7811   2.3455   2.6582   3.4399   4.4531
     4.8089   6.0258   6.2170   6.3964

          k =-0.5013 0.5793 0.0000 ( 24068 PWs)   bands (ev):

    -4.7208  -4.6565  -4.6513  -4.6015  -4.5588  -4.3476  -4.3344  -4.2635
    -4.1579  -4.0894  -4.0805  -3.9422  -3.9252  -3.8874  -3.8375  -3.7836
    -3.6446  -3.4694  -3.3765  -3.3513  -3.2285  -3.1494  -3.0783  -2.9774
    -2.9729  -2.8913  -2.8649  -2.8257  -2.7297  -2.7198  -2.6760  -2.6509
    -2.6209  -2.5667  -2.5597  -2.5555  -2.5241  -2.4103  -2.3297  -2.2989
    -2.2897  -2.0972  -2.0510  -1.9748  -1.9584  -1.8941  -1.4263  -0.1762
    -0.1000   0.2442   1.1089   1.3582   2.3100   3.0016   3.0051   3.8071
     4.7537   5.8890   6.2961   6.7050

          k =-0.5013 0.7238 0.0000 ( 24070 PWs)   bands (ev):

    -4.8324  -4.7897  -4.5721  -4.4268  -4.3900  -4.3252  -4.2842  -4.2365
    -4.2102  -4.1831  -4.0654  -3.9888  -3.8744  -3.8485  -3.7824  -3.7539
    -3.6649  -3.5790  -3.4943  -3.3959  -3.3121  -3.1820  -3.1017  -3.0282
    -2.9787  -2.9467  -2.8819  -2.8234  -2.7203  -2.6844  -2.6683  -2.6405
    -2.5746  -2.5602  -2.5306  -2.5062  -2.4780  -2.4552  -2.4124  -2.3103
    -2.1302  -2.0963  -2.0668  -1.9635  -1.9020  -1.8310  -1.2767  -0.9705
    -0.0179   0.5228   1.0109   1.7811   2.3455   2.6582   3.4399   4.4531
     4.8089   6.0257   6.2133   6.4051

          k =-0.5013-0.2874 0.0000 ( 24060 PWs)   bands (ev):

    -4.9017  -4.8448  -4.4112  -4.3859  -4.3104  -4.2824  -4.2426  -4.2372
    -4.1693  -4.0686  -4.0487  -4.0388  -4.0210  -3.9194  -3.8438  -3.7654
    -3.6535  -3.6036  -3.4590  -3.3617  -3.3384  -3.2788  -3.2657  -3.1402
    -3.0587  -2.8555  -2.8553  -2.7404  -2.7385  -2.7340  -2.6315  -2.6282
    -2.6077  -2.5308  -2.5210  -2.4895  -2.4549  -2.4042  -2.4022  -2.2942
    -2.1983  -2.1692  -1.9646  -1.8909  -1.7419  -1.6935  -1.5629  -0.7943
    -0.6746   0.7162   1.1747   1.7776   2.4702   3.1136   3.6416   4.7262
     4.9182   5.6779   5.9722   5.9796

     the Fermi energy is     0.9532 ev

!    total energy              =    -758.47711465 Ry
     estimated scf accuracy    <       0.00000037 Ry
     smearing contrib. (-TS)   =      -0.00073925 Ry
     internal energy E=F+TS    =    -758.47637539 Ry

     The total energy is F=E-TS. E is the sum of the following terms:
     one-electron contribution =   -7388.06439629 Ry
     hartree contribution      =    3762.09529396 Ry
     xc contribution           =    -200.68208822 Ry
     ewald contribution        =    3068.38990524 Ry
     DFT-D3 Dispersion         =      -0.21509009 Ry

     convergence has been achieved in   4 iterations

     negative rho (up, down):  3.009E-05 0.000E+00

     Forces acting on atoms (cartesian axes, Ry/au):

     atom    1 type  1   force =     0.00002143   -0.00001335    0.00028886
     atom    2 type  1   force =    -0.00128431    0.00074466   -0.01780810
     atom    3 type  1   force =    -0.00007354    0.00004312   -0.00101960
     atom    4 type  1   force =     0.00058156   -0.00033692    0.00806158
     atom    5 type  1   force =     0.00002786   -0.00001549    0.00038272
     atom    6 type  1   force =    -0.00002026    0.00001138   -0.00027887
     atom    7 type  1   force =    -0.00001619    0.00000927   -0.00022498
     atom    8 type  1   force =    -0.00061076    0.00035320   -0.00849232
     atom    9 type  1   force =     0.00137421   -0.00079587    0.01909070
     The non-local contrib.  to forces
     atom    1 type  1   force =     0.00255360   -0.00147974    0.03546495
     atom    2 type  1   force =     0.01284001   -0.00743836    0.17843185
     atom    3 type  1   force =     0.00187861   -0.00108828    0.02610573
     atom    4 type  1   force =     0.00199868   -0.00115830    0.02775526
     atom    5 type  1   force =    -0.00193120    0.00111991   -0.02682998
     atom    6 type  1   force =     0.00000110   -0.00000106    0.00002181
     atom    7 type  1   force =    -0.00257549    0.00149198   -0.03577533
     atom    8 type  1   force =    -0.00211326    0.00122382   -0.02936318
     atom    9 type  1   force =    -0.01285187    0.00744638   -0.17854587
     The ionic contribution  to forces
     atom    1 type  1   force =     6.50978858   -3.77139104   90.43689608
     atom    2 type  1   force =     8.02741667   -4.65064368  111.52028310
     atom    3 type  1   force =     2.18163715   -1.26392148   30.30820884
     atom    4 type  1   force =     4.51713996   -2.61699769   62.75431886
     atom    5 type  1   force =    -2.18725948    1.26717635  -30.38636774
     atom    6 type  1   force =    -0.00171981    0.00099961   -0.02391446
     atom    7 type  1   force =    -6.50702223    3.76980807  -90.39844211
     atom    8 type  1   force =    -4.51200622    2.61400630  -62.68279485
     atom    9 type  1   force =    -8.02797463    4.65096355 -111.52818773
     The local contribution  to forces
     atom    1 type  1   force =    -6.51208071    3.77271692  -90.46873329
     atom    2 type  1   force =    -8.04130871    4.65869268 -111.71326698
     atom    3 type  1   force =    -2.18336570    1.26492237  -30.33222605
     atom    4 type  1   force =    -4.51810517    2.61755789  -62.76772703
     atom    5 type  1   force =     2.18905304   -1.26821558   30.41128259
     atom    6 type  1   force =     0.00172529   -0.00100165    0.02398195
     atom    7 type  1   force =     6.50931744   -3.77113802   90.43032626
     atom    8 type  1   force =     4.51309069   -2.61463468   62.69786828
     atom    9 type  1   force =     8.04186443   -4.65901054  111.72114364
     The core correction contribution to forces
     atom    1 type  1   force =    -0.00022710    0.00013153   -0.00315443
     atom    2 type  1   force =    -0.00033255    0.00019272   -0.00462079
     atom    3 type  1   force =     0.00000694   -0.00000405    0.00009592
     atom    4 type  1   force =    -0.00020679    0.00011986   -0.00287308
     atom    5 type  1   force =    -0.00000195    0.00000112   -0.00002705
     atom    6 type  1   force =     0.00000016   -0.00000003    0.00000189
     atom    7 type  1   force =     0.00022716   -0.00013163    0.00315555
     atom    8 type  1   force =     0.00021354   -0.00012371    0.00296701
     atom    9 type  1   force =     0.00031945   -0.00018505    0.00443748
     The Hubbard contrib.    to forces
     atom    1 type  1   force =     0.00000000    0.00000000    0.00000000
     atom    2 type  1   force =     0.00000000    0.00000000    0.00000000
     atom    3 type  1   force =     0.00000000    0.00000000    0.00000000
     atom    4 type  1   force =     0.00000000    0.00000000    0.00000000
     atom    5 type  1   force =     0.00000000    0.00000000    0.00000000
     atom    6 type  1   force =     0.00000000    0.00000000    0.00000000
     atom    7 type  1   force =     0.00000000    0.00000000    0.00000000
     atom    8 type  1   force =     0.00000000    0.00000000    0.00000000
     atom    9 type  1   force =     0.00000000    0.00000000    0.00000000
     The SCF correction term to forces
     atom    1 type  1   force =     0.00006423   -0.00003560    0.00089276
     atom    2 type  1   force =     0.00013523   -0.00007885    0.00185539
     atom    3 type  1   force =    -0.00000000    0.00000000   -0.00000000
     atom    4 type  1   force =     0.00002616   -0.00001576    0.00036181
     atom    5 type  1   force =    -0.00000000    0.00000000   -0.00000000
     atom    6 type  1   force =    -0.00000000    0.00000000   -0.00000000
     atom    7 type  1   force =    -0.00000000    0.00000000   -0.00000000
     atom    8 type  1   force =    -0.00000000    0.00000000   -0.00000000
     atom    9 type  1   force =    -0.00000000    0.00000000   -0.00000000

     DFT-D3 dispersion contribution to forces:
     atom    1 type  1   force =    -0.00008784    0.00005087   -0.00122028
     atom    2 type  1   force =    -0.00004563    0.00002644   -0.00063374
     atom    3 type  1   force =    -0.00023259    0.00013476   -0.00323129
     atom    4 type  1   force =    -0.00028196    0.00016337   -0.00391732
     atom    5 type  1   force =     0.00023385   -0.00013548    0.00324879
     atom    6 type  1   force =     0.00000034   -0.00000020    0.00000476
     atom    7 type  1   force =     0.00008820   -0.00005110    0.00122526
     atom    8 type  1   force =     0.00028643   -0.00016594    0.00397926
     atom    9 type  1   force =     0.00003920   -0.00002271    0.00054456

     Total force =     0.019618     Total SCF correction =     0.002098
     SCF correction compared to forces is large: reduce conv_thr to get better values


     Computing stress (Cartesian axis) and pressure


     negative rho (up, down):  3.009E-05 0.000E+00
          total   stress  (Ry/bohr**3)                   (kbar)     P=      -19.19
  -0.00014608  -0.00000014   0.00000341          -21.49       -0.02        0.50
  -0.00000014  -0.00014624  -0.00000198           -0.02      -21.51       -0.29
   0.00000341  -0.00000198  -0.00009898            0.50       -0.29      -14.56

     Energy error            =      4.2E-04 Ry
     Gradient error          =      1.8E-02 Ry/Bohr

     number of scf cycles    =   2
     number of bfgs steps    =   1

     energy             old  =    -758.4766973662 Ry
     energy             new  =    -758.4771146474 Ry

     CASE: energy            _new < energy            _old


     WARNING: bfgs curvature condition failed, Theta= 0.837
     new trust radius        =       0.0206031033 bohr
     new conv_thr            =       0.0000000417 Ry


ATOMIC_POSITIONS (angstrom)
Ag            4.4973697068        3.2574899480       16.3880334979
Ag            4.5563761480        0.5172973014       17.2078240776
Ag            4.3521639913        0.6356084416       14.3707610469    0   0   0
Ag            2.0900319111        1.9461626368       15.5568024291
Ag            1.8836520704        2.0657274352       12.6896991058    0   0   0
Ag            4.2916612481        3.3766698460       13.5302300763    0   0   0
Ag            4.0859519214        3.4958464288       10.6724247764    0   0   0
Ag            4.1464546645        0.7547850244       11.5129557470    0   0   0
Ag            1.6779427436        2.1849040180        9.8318938059    0   0   0



     Writing config-only to output data dir ./Ag_111/Ag_111.save/
     NEW-OLD atomic charge density approx. for the potential

     negative rho (up, down):  3.086E-05 0.000E+00

     total cpu time spent up to now is       50.3 secs

     per-process dynamical memory:   201.5 Mb

     Self-consistent Calculation

     iteration #  1     ecut=    55.00 Ry     beta= 0.30
     Davidson diagonalization with overlap
     ethr =  1.00E-06,  avg # of iterations =  4.0

     Threshold (ethr) on eigenvalues was too large:
     Diagonalizing with lowered threshold

     Davidson diagonalization with overlap
     ethr =  2.30E-08,  avg # of iterations =  3.5

     negative rho (up, down):  3.060E-05 0.000E+00

     total cpu time spent up to now is       53.6 secs

     total energy              =    -758.47754213 Ry
     estimated scf accuracy    <       0.00002400 Ry

     iteration #  2     ecut=    55.00 Ry     beta= 0.30
     Davidson diagonalization with overlap
     ethr =  2.42E-08,  avg # of iterations =  2.0

     negative rho (up, down):  3.054E-05 0.000E+00

     total cpu time spent up to now is       54.9 secs

     total energy              =    -758.47753287 Ry
     estimated scf accuracy    <       0.00030710 Ry

     iteration #  3     ecut=    55.00 Ry     beta= 0.30
     Davidson diagonalization with overlap
     ethr =  2.42E-08,  avg # of iterations =  1.8

     negative rho (up, down):  3.045E-05 0.000E+00

     total cpu time spent up to now is       56.1 secs

     total energy              =    -758.47755002 Ry
     estimated scf accuracy    <       0.00000430 Ry

     iteration #  4     ecut=    55.00 Ry     beta= 0.30
     Davidson diagonalization with overlap
     ethr =  4.34E-09,  avg # of iterations =  1.9

     negative rho (up, down):  3.037E-05 0.000E+00

     total cpu time spent up to now is       57.3 secs

     total energy              =    -758.47755053 Ry
     estimated scf accuracy    <       0.00000195 Ry

     iteration #  5     ecut=    55.00 Ry     beta= 0.30
     Davidson diagonalization with overlap
     ethr =  1.97E-09,  avg # of iterations =  1.3

     negative rho (up, down):  3.030E-05 0.000E+00

     total cpu time spent up to now is       58.5 secs

     total energy              =    -758.47755083 Ry
     estimated scf accuracy    <       0.00000016 Ry

     iteration #  6     ecut=    55.00 Ry     beta= 0.30
     Davidson diagonalization with overlap
     ethr =  1.66E-10,  avg # of iterations =  4.3

     negative rho (up, down):  3.024E-05 0.000E+00

     total cpu time spent up to now is       59.9 secs

     End of self-consistent calculation

          k = 0.0000 0.0000 0.0000 ( 24179 PWs)   bands (ev):

    -5.9537  -4.8289  -4.8288  -4.8209  -4.2867  -4.2866  -4.2355  -4.1821
    -4.1415  -4.1415  -4.1347  -4.1347  -3.8936  -3.8936  -3.8807  -3.8411
    -3.8411  -3.7558  -3.7558  -3.4767  -3.4438  -3.3820  -3.3820  -3.3093
    -3.3093  -3.3025  -2.8681  -2.5954  -2.5954  -2.5822  -2.5412  -2.5411
    -2.4830  -2.4830  -2.4579  -2.4579  -2.4040  -2.4039  -2.3608  -2.3608
    -2.2832  -2.2831  -2.1687  -2.0384  -2.0384  -1.8931  -1.8931  -1.1963
     0.6238   2.6616   4.4254   4.8791   5.5661   5.5950   5.8223   5.8223
     5.9198   5.9198   6.1878   6.1892

          k = 0.0000 0.1445 0.0000 ( 24156 PWs)   bands (ev):

    -5.8001  -4.7915  -4.7677  -4.7652  -4.3942  -4.3469  -4.2983  -4.2645
    -4.2338  -4.1455  -4.1141  -4.0375  -3.9797  -3.9687  -3.7970  -3.7701
    -3.7270  -3.7142  -3.5977  -3.4940  -3.3543  -3.3409  -3.3335  -3.2575
    -3.2094  -3.1933  -2.8441  -2.6898  -2.6349  -2.5859  -2.5468  -2.5170
    -2.5169  -2.4922  -2.4727  -2.4543  -2.4280  -2.4117  -2.3658  -2.3583
    -2.3256  -2.3254  -2.1905  -2.1067  -2.0480  -1.9600  -1.8670  -1.1249
     0.7466   2.7813   3.6027   4.3684   4.5357   4.6285   5.0239   5.4482
     5.5592   5.6588   5.7418   6.0210

          k = 0.0000 0.2889 0.0000 ( 24139 PWs)   bands (ev):

    -5.3740  -4.7548  -4.6408  -4.5847  -4.5472  -4.4912  -4.3489  -4.3381
    -4.2305  -4.1653  -4.0703  -4.0309  -3.9580  -3.9023  -3.8099  -3.7809
    -3.6097  -3.5841  -3.5676  -3.3463  -3.3214  -3.2305  -3.1968  -3.1066
    -3.0599  -2.9000  -2.8353  -2.7717  -2.7035  -2.6492  -2.6209  -2.5843
    -2.5519  -2.5220  -2.5137  -2.4762  -2.4698  -2.4078  -2.3757  -2.3578
    -2.3349  -2.3029  -2.2465  -2.1455  -2.0862  -2.0829  -1.8174  -0.8486
     1.1193   1.5040   2.5831   3.0867   3.1206   4.0858   4.5494   4.9455
     5.1127   5.4356   5.7774   6.0067

          k = 0.0000 0.4334 0.0000 ( 24088 PWs)   bands (ev):

    -4.9008  -4.7718  -4.7328  -4.4521  -4.3784  -4.3624  -4.3190  -4.2793
    -4.2044  -4.1608  -4.1091  -3.9909  -3.9488  -3.8879  -3.7894  -3.7204
    -3.6560  -3.6183  -3.4873  -3.3432  -3.2661  -3.2520  -3.2175  -3.1127
    -3.0323  -2.8729  -2.8693  -2.7743  -2.6934  -2.6875  -2.6536  -2.6315
    -2.5446  -2.5326  -2.5184  -2.4908  -2.4346  -2.3990  -2.3756  -2.3148
    -2.2974  -2.2313  -2.1460  -2.0412  -2.0305  -1.8061  -1.7746  -0.3226
    -0.2018   0.7951   1.8234   2.1463   2.3917   3.4924   3.8755   4.7247
     4.9800   5.6643   5.8636   6.1151

          k = 0.0000-0.5778 0.0000 ( 24060 PWs)   bands (ev):

    -4.9018  -4.8449  -4.4152  -4.3854  -4.3148  -4.2832  -4.2452  -4.2355
    -4.1709  -4.0699  -4.0495  -4.0380  -4.0217  -3.9230  -3.8482  -3.7700
    -3.6531  -3.6071  -3.4642  -3.3648  -3.3408  -3.2871  -3.2672  -3.1418
    -3.0627  -2.8576  -2.8556  -2.7412  -2.7406  -2.7348  -2.6344  -2.6276
    -2.6070  -2.5301  -2.5233  -2.4913  -2.4548  -2.4042  -2.4029  -2.2928
    -2.1976  -2.1685  -1.9638  -1.8901  -1.7421  -1.6945  -1.5621  -0.7976
    -0.6764   0.7155   1.1752   1.7765   2.4751   3.1183   3.6365   4.7338
     4.9178   5.6779   5.9725   5.9835

          k = 0.1253-0.0726 0.0000 ( 24146 PWs)   bands (ev):

    -5.8001  -4.7915  -4.7677  -4.7652  -4.3942  -4.3469  -4.2982  -4.2645
    -4.2337  -4.1455  -4.1142  -4.0375  -3.9797  -3.9687  -3.7970  -3.7702
    -3.7270  -3.7142  -3.5977  -3.4940  -3.3543  -3.3409  -3.3335  -3.2575
    -3.2094  -3.1933  -2.8441  -2.6899  -2.6349  -2.5859  -2.5468  -2.5170
[...]
    -3.7062  -3.5142  -3.4207  -3.3606  -3.2694  -3.1695  -3.0855  -3.0264
    -2.9985  -2.9242  -2.8947  -2.8595  -2.7434  -2.7119  -2.6762  -2.6528
    -2.6072  -2.5795  -2.5739  -2.5515  -2.5149  -2.4012  -2.3374  -2.3042
    -2.2761  -2.1001  -2.0349  -1.9803  -1.9478  -1.8640  -1.4775  -0.1824
    -0.1106   0.2612   1.0798   1.2992   2.3744   2.9942   3.0319   3.8885
     4.8284   5.9462   6.3414   6.7215

          k = 0.2506-0.2897 0.0000 ( 24092 PWs)   bands (ev):

    -5.0428  -4.7702  -4.6582  -4.5826  -4.4963  -4.4555  -4.4268  -4.3607
    -4.2717  -4.2047  -4.1110  -4.0454  -3.9802  -3.9161  -3.8357  -3.8176
    -3.7291  -3.5463  -3.4542  -3.3784  -3.2899  -3.1960  -3.1102  -3.0793
    -3.0086  -2.9104  -2.8806  -2.8422  -2.7363  -2.7216  -2.6754  -2.6564
    -2.5758  -2.5481  -2.5267  -2.5149  -2.5003  -2.4171  -2.3710  -2.3343
    -2.3171  -2.2204  -2.1623  -2.1462  -2.0195  -1.9636  -1.8660  -0.4536
     0.5812   1.4850   1.6496   1.7947   2.8923   3.3522   3.6284   4.6219
     5.3575   5.8293   5.9175   6.2477

          k = 0.3760-0.2178 0.0000 ( 24082 PWs)   bands (ev):

    -4.9086  -4.7924  -4.7640  -4.5011  -4.4064  -4.4013  -4.3259  -4.3039
    -4.2202  -4.1789  -4.1542  -4.0219  -3.9999  -3.8975  -3.8453  -3.7602
    -3.6743  -3.6293  -3.5265  -3.4389  -3.3118  -3.2958  -3.2335  -3.1375
    -3.0424  -2.8829  -2.8817  -2.7963  -2.7424  -2.6885  -2.6814  -2.6327
    -2.5555  -2.5247  -2.5191  -2.4908  -2.4458  -2.4044  -2.3731  -2.3171
    -2.2708  -2.2265  -2.1309  -2.0323  -2.0161  -1.8407  -1.7779  -0.3176
    -0.1868   0.7645   1.8729   2.1336   2.4136   3.5705   3.8155   4.8058
     4.9841   5.6691   5.9149   6.1257

          k = 0.3760-0.0734 0.0000 ( 24092 PWs)   bands (ev):

    -5.0428  -4.7702  -4.6582  -4.5826  -4.4963  -4.4555  -4.4268  -4.3607
    -4.2717  -4.2047  -4.1110  -4.0454  -3.9802  -3.9161  -3.8357  -3.8176
    -3.7291  -3.5463  -3.4542  -3.3784  -3.2899  -3.1960  -3.1102  -3.0793
    -3.0086  -2.9104  -2.8806  -2.8422  -2.7363  -2.7216  -2.6754  -2.6564
    -2.5758  -2.5481  -2.5267  -2.5149  -2.5003  -2.4171  -2.3710  -2.3343
    -2.3171  -2.2204  -2.1623  -2.1462  -2.0195  -1.9636  -1.8660  -0.4536
     0.5812   1.4850   1.6496   1.7947   2.8923   3.3522   3.6284   4.6219
     5.3575   5.8293   5.9175   6.2477

          k = 0.3760 0.0711 0.0000 ( 24099 PWs)   bands (ev):

    -5.0428  -4.7702  -4.6582  -4.5826  -4.4963  -4.4555  -4.4268  -4.3607
    -4.2717  -4.2047  -4.1110  -4.0454  -3.9802  -3.9161  -3.8357  -3.8176
    -3.7291  -3.5463  -3.4542  -3.3784  -3.2899  -3.1960  -3.1102  -3.0793
    -3.0086  -2.9104  -2.8806  -2.8422  -2.7363  -2.7216  -2.6754  -2.6564
    -2.5758  -2.5481  -2.5267  -2.5149  -2.5003  -2.4171  -2.3710  -2.3343
    -2.3171  -2.2204  -2.1623  -2.1462  -2.0195  -1.9636  -1.8660  -0.4536
     0.5812   1.4850   1.6496   1.7947   2.8923   3.3522   3.6284   4.6219
     5.3604   5.7733   6.0053   6.2577

          k = 0.3760 0.2156 0.0000 ( 24088 PWs)   bands (ev):

    -4.9086  -4.7924  -4.7640  -4.5012  -4.4065  -4.4013  -4.3259  -4.3039
    -4.2202  -4.1789  -4.1542  -4.0219  -3.9999  -3.8975  -3.8453  -3.7602
    -3.6743  -3.6294  -3.5265  -3.4389  -3.3118  -3.2958  -3.2335  -3.1375
    -3.0424  -2.8829  -2.8817  -2.7963  -2.7424  -2.6885  -2.6814  -2.6328
    -2.5555  -2.5247  -2.5191  -2.4908  -2.4458  -2.4044  -2.3731  -2.3172
    -2.2707  -2.2265  -2.1309  -2.0323  -2.0161  -1.8407  -1.7778  -0.3176
    -0.1868   0.7645   1.8729   2.1336   2.4136   3.5705   3.8155   4.8059
     4.9842   5.6698   5.9079   6.1257

          k = 0.3760-0.7957 0.0000 ( 24065 PWs)   bands (ev):

    -4.8471  -4.8037  -4.6070  -4.4706  -4.4066  -4.3716  -4.3027  -4.2820
    -4.2337  -4.1911  -4.1220  -4.0250  -3.9337  -3.8863  -3.8138  -3.7710
    -3.6925  -3.6204  -3.5329  -3.4570  -3.3449  -3.2335  -3.1260  -3.0707
    -3.0101  -2.9586  -2.9102  -2.8454  -2.7370  -2.6982  -2.6756  -2.6378
    -2.5968  -2.5627  -2.5311  -2.5098  -2.4583  -2.4442  -2.4068  -2.3066
    -2.1226  -2.1033  -2.0604  -1.9458  -1.8825  -1.8294  -1.3128  -0.9802
    -0.0408   0.5200   0.9992   1.7907   2.4038   2.6177   3.5148   4.4761
     4.8826   6.0303   6.2635   6.4603

          k = 0.3760-0.6512 0.0000 ( 24049 PWs)   bands (ev):

    -4.7394  -4.6981  -4.6276  -4.5979  -4.4698  -4.4139  -4.3067  -4.2550
    -4.2066  -4.1384  -4.0795  -4.0402  -3.9619  -3.8589  -3.8268  -3.7714
    -3.7073  -3.6334  -3.5046  -3.3130  -3.2557  -3.1371  -3.1301  -3.0479
    -2.9787  -2.9165  -2.8333  -2.8272  -2.7790  -2.7418  -2.7079  -2.6512
    -2.6294  -2.6169  -2.5792  -2.5603  -2.4586  -2.3813  -2.3496  -2.1769
    -2.0947  -2.0796  -1.9090  -1.8772  -1.8170  -1.6181  -1.4953  -0.5983
    -0.3198  -0.2757   0.8143   1.5525   1.6776   2.8778   3.1941   3.6002
     4.3640   6.2602   6.3963   7.2535

          k = 0.3760-0.5067 0.0000 ( 24032 PWs)   bands (ev):

    -4.7394  -4.6981  -4.6276  -4.5979  -4.4698  -4.4138  -4.3067  -4.2550
    -4.2065  -4.1384  -4.0795  -4.0402  -3.9619  -3.8589  -3.8268  -3.7714
    -3.7072  -3.6333  -3.5046  -3.3130  -3.2557  -3.1371  -3.1300  -3.0479
    -2.9787  -2.9165  -2.8333  -2.8272  -2.7790  -2.7418  -2.7079  -2.6512
    -2.6294  -2.6169  -2.5792  -2.5603  -2.4586  -2.3813  -2.3495  -2.1769
    -2.0947  -2.0796  -1.9090  -1.8772  -1.8169  -1.6181  -1.4953  -0.5983
    -0.3198  -0.2756   0.8143   1.5525   1.6776   2.8778   3.1941   3.6002
     4.3640   6.2603   6.3964   7.2457

          k = 0.3760-0.3623 0.0000 ( 24075 PWs)   bands (ev):

    -4.8472  -4.8036  -4.6070  -4.4706  -4.4066  -4.3716  -4.3027  -4.2820
    -4.2337  -4.1911  -4.1220  -4.0250  -3.9337  -3.8863  -3.8138  -3.7710
    -3.6925  -3.6205  -3.5329  -3.4570  -3.3449  -3.2335  -3.1260  -3.0707
    -3.0101  -2.9586  -2.9102  -2.8455  -2.7370  -2.6982  -2.6756  -2.6377
    -2.5968  -2.5628  -2.5311  -2.5098  -2.4584  -2.4442  -2.4068  -2.3067
    -2.1226  -2.1033  -2.0604  -1.9458  -1.8825  -1.8294  -1.3128  -0.9802
    -0.0408   0.5200   0.9992   1.7907   2.4038   2.6177   3.5148   4.4761
     4.8827   6.0303   6.2674   6.4439

          k =-0.5013 0.2904 0.0000 ( 24044 PWs)   bands (ev):

    -4.9163  -4.8586  -4.4850  -4.3926  -4.3914  -4.3298  -4.2923  -4.2150
    -4.2013  -4.0820  -4.0787  -4.0219  -4.0132  -3.9654  -3.9018  -3.8227
    -3.6583  -3.6359  -3.5265  -3.4401  -3.4043  -3.3326  -3.2692  -3.1629
    -3.1086  -2.8771  -2.8541  -2.7876  -2.7472  -2.7339  -2.6735  -2.6130
    -2.5980  -2.5640  -2.5188  -2.4968  -2.4538  -2.4172  -2.3963  -2.2629
    -2.1954  -2.1472  -1.9435  -1.8746  -1.7441  -1.7079  -1.5523  -0.8373
    -0.7007   0.7183   1.1900   1.7600   2.5471   3.1858   3.5699   4.8303
     4.9142   5.6814   5.9821   6.0342

          k =-0.5013 0.4349 0.0000 ( 24075 PWs)   bands (ev):

    -4.8472  -4.8036  -4.6070  -4.4706  -4.4066  -4.3716  -4.3027  -4.2820
    -4.2337  -4.1911  -4.1220  -4.0250  -3.9337  -3.8863  -3.8138  -3.7710
    -3.6925  -3.6205  -3.5329  -3.4570  -3.3449  -3.2335  -3.1260  -3.0707
    -3.0101  -2.9586  -2.9102  -2.8455  -2.7370  -2.6982  -2.6756  -2.6377
    -2.5968  -2.5628  -2.5311  -2.5098  -2.4584  -2.4442  -2.4068  -2.3067
    -2.1226  -2.1033  -2.0604  -1.9458  -1.8825  -1.8294  -1.3128  -0.9802
    -0.0408   0.5200   0.9992   1.7907   2.4038   2.6177   3.5148   4.4761
     4.8827   6.0303   6.2675   6.4439

          k =-0.5013 0.5793 0.0000 ( 24068 PWs)   bands (ev):

    -4.7392  -4.6816  -4.6528  -4.6363  -4.5763  -4.3975  -4.3526  -4.3020
    -4.1864  -4.1308  -4.1044  -4.0395  -3.9496  -3.9312  -3.8677  -3.8247
    -3.7062  -3.5142  -3.4207  -3.3606  -3.2694  -3.1695  -3.0855  -3.0264
    -2.9985  -2.9242  -2.8947  -2.8595  -2.7434  -2.7119  -2.6762  -2.6528
    -2.6072  -2.5795  -2.5739  -2.5515  -2.5149  -2.4012  -2.3374  -2.3042
    -2.2761  -2.1001  -2.0349  -1.9803  -1.9478  -1.8640  -1.4775  -0.1824
    -0.1106   0.2612   1.0798   1.2992   2.3744   2.9942   3.0319   3.8885
     4.8284   5.9462   6.3414   6.7215

          k =-0.5013 0.7238 0.0000 ( 24070 PWs)   bands (ev):

    -4.8472  -4.8036  -4.6070  -4.4706  -4.4066  -4.3716  -4.3027  -4.2821
    -4.2337  -4.1911  -4.1220  -4.0250  -3.9337  -3.8863  -3.8138  -3.7711
    -3.6925  -3.6205  -3.5329  -3.4571  -3.3449  -3.2335  -3.1260  -3.0707
    -3.0101  -2.9586  -2.9101  -2.8455  -2.7370  -2.6982  -2.6756  -2.6377
    -2.5967  -2.5627  -2.5311  -2.5098  -2.4584  -2.4442  -2.4068  -2.3067
    -2.1226  -2.1033  -2.0604  -1.9458  -1.8825  -1.8294  -1.3128  -0.9802
    -0.0408   0.5200   0.9992   1.7907   2.4038   2.6177   3.5148   4.4761
     4.8827   6.0303   6.2635   6.4542

          k =-0.5013-0.2874 0.0000 ( 24060 PWs)   bands (ev):

    -4.9163  -4.8586  -4.4850  -4.3926  -4.3915  -4.3298  -4.2923  -4.2150
    -4.2013  -4.0820  -4.0787  -4.0220  -4.0132  -3.9654  -3.9018  -3.8227
    -3.6583  -3.6358  -3.5265  -3.4402  -3.4043  -3.3326  -3.2693  -3.1629
    -3.1086  -2.8771  -2.8541  -2.7876  -2.7472  -2.7339  -2.6735  -2.6130
    -2.5980  -2.5640  -2.5188  -2.4968  -2.4538  -2.4173  -2.3963  -2.2630
    -2.1955  -2.1472  -1.9435  -1.8746  -1.7441  -1.7079  -1.5523  -0.8373
    -0.7008   0.7183   1.1900   1.7600   2.5471   3.1858   3.5699   4.8303
     4.9142   5.6814   5.9821   6.0343

     the Fermi energy is     0.9562 ev

!    total energy              =    -758.48054158 Ry
     estimated scf accuracy    <          2.1E-09 Ry
     smearing contrib. (-TS)   =      -0.00062480 Ry
     internal energy E=F+TS    =    -758.47991678 Ry

     The total energy is F=E-TS. E is the sum of the following terms:
     one-electron contribution =   -7436.03750641 Ry
     hartree contribution      =    3786.02680563 Ry
     xc contribution           =    -200.71333640 Ry
     ewald contribution        =    3092.45912863 Ry
     DFT-D3 Dispersion         =      -0.21500823 Ry

     convergence has been achieved in   6 iterations

     negative rho (up, down):  3.217E-05 0.000E+00

     Forces acting on atoms (cartesian axes, Ry/au):

     atom    1 type  1   force =    -0.00003347    0.00001966   -0.00046527
     atom    2 type  1   force =     0.00004690   -0.00002706    0.00064864
     atom    3 type  1   force =    -0.00111187    0.00064377   -0.01544734
     atom    4 type  1   force =     0.00006488   -0.00003752    0.00090325
     atom    5 type  1   force =     0.00031918   -0.00018490    0.00443263
     atom    6 type  1   force =    -0.00010872    0.00006298   -0.00151114
     atom    7 type  1   force =    -0.00000961    0.00000556   -0.00013195
     atom    8 type  1   force =    -0.00054763    0.00031719   -0.00760686
     atom    9 type  1   force =     0.00138034   -0.00079967    0.01917804
     The non-local contrib.  to forces
     atom    1 type  1   force =     0.00254493   -0.00147353    0.03535089
     atom    2 type  1   force =     0.01298370   -0.00752175    0.18036462
     atom    3 type  1   force =     0.00143272   -0.00083102    0.01990899
     atom    4 type  1   force =     0.00047553   -0.00027526    0.00661015
     atom    5 type  1   force =    -0.00167186    0.00096871   -0.02322786
     atom    6 type  1   force =     0.00040886   -0.00023707    0.00567912
     atom    7 type  1   force =    -0.00251948    0.00145976   -0.03500069
     atom    8 type  1   force =    -0.00220956    0.00128020   -0.03069894
     atom    9 type  1   force =    -0.01296935    0.00751384   -0.18017557
     The ionic contribution  to forces
     atom    1 type  1   force =     6.55181907   -3.79572691   91.02070386
     atom    2 type  1   force =     8.02018567   -4.64645013  111.41944348
     atom    3 type  1   force =     2.08474125   -1.20782083   28.96224612
     atom    4 type  1   force =     4.63414897   -2.68477391   64.38024595
     atom    5 type  1   force =    -2.18188679    1.26407061  -30.31176421
     atom    6 type  1   force =    -0.03114623    0.01804630   -0.43275116
     atom    7 type  1   force =    -6.51699658    3.77558658  -90.53701022
     atom    8 type  1   force =    -4.52339114    2.62060111  -62.84095309
     atom    9 type  1   force =    -8.03747423    4.65646717 -111.66016074
     The local contribution  to forces
     atom    1 type  1   force =    -6.55407570    3.79703396  -91.05205126
     atom    2 type  1   force =    -8.03245569    4.65355856 -111.58989686
     atom    3 type  1   force =    -2.08721911    1.20925686  -28.99667437
     atom    4 type  1   force =    -4.63426342    2.68484006  -64.38184164
     atom    5 type  1   force =     2.18370184   -1.26512232   30.33697889
     atom    6 type  1   force =     0.03061563   -0.01773866    0.42537858
     atom    7 type  1   force =     6.51919611   -3.77686087   90.56756658
     atom    8 type  1   force =     4.52455176   -2.62127356   62.85708005
     atom    9 type  1   force =     8.05147066   -4.66457595  111.85460512
     The core correction contribution to forces
     atom    1 type  1   force =    -0.00023150    0.00013406   -0.00321614
     atom    2 type  1   force =    -0.00051450    0.00029806   -0.00714644
     atom    3 type  1   force =     0.00014904   -0.00008627    0.00207027
     atom    4 type  1   force =    -0.00010917    0.00006324   -0.00151758
     atom    5 type  1   force =    -0.00004958    0.00002871   -0.00068879
     atom    6 type  1   force =     0.00000218   -0.00000127    0.00003026
     atom    7 type  1   force =     0.00022573   -0.00013078    0.00313601
     atom    8 type  1   force =     0.00021391   -0.00012392    0.00297171
     atom    9 type  1   force =     0.00031634   -0.00018327    0.00439482
     The Hubbard contrib.    to forces
     atom    1 type  1   force =     0.00000000    0.00000000    0.00000000
     atom    2 type  1   force =     0.00000000    0.00000000    0.00000000
     atom    3 type  1   force =     0.00000000    0.00000000    0.00000000
     atom    4 type  1   force =     0.00000000    0.00000000    0.00000000
     atom    5 type  1   force =     0.00000000    0.00000000    0.00000000
     atom    6 type  1   force =     0.00000000    0.00000000    0.00000000
     atom    7 type  1   force =     0.00000000    0.00000000    0.00000000
     atom    8 type  1   force =     0.00000000    0.00000000    0.00000000
     atom    9 type  1   force =     0.00000000    0.00000000    0.00000000
     The SCF correction term to forces
     atom    1 type  1   force =    -0.00000194    0.00000102   -0.00002670
     atom    2 type  1   force =     0.00000124   -0.00000063    0.00001469
     atom    3 type  1   force =    -0.00000000    0.00000000   -0.00000000
     atom    4 type  1   force =     0.00000636   -0.00000364    0.00009266
     atom    5 type  1   force =    -0.00000000    0.00000000   -0.00000000
     atom    6 type  1   force =     0.00000000   -0.00000000    0.00000000
     atom    7 type  1   force =    -0.00000000    0.00000000   -0.00000000
     atom    8 type  1   force =    -0.00000000   -0.00000000   -0.00000000
     atom    9 type  1   force =    -0.00000000    0.00000000   -0.00000000

     DFT-D3 dispersion contribution to forces:
     atom    1 type  1   force =    -0.00008838    0.00005115   -0.00122745
     atom    2 type  1   force =    -0.00015357    0.00008893   -0.00213238
     atom    3 type  1   force =    -0.00021527    0.00012479   -0.00299122
     atom    4 type  1   force =    -0.00019343    0.00011206   -0.00268783
     atom    5 type  1   force =     0.00022989   -0.00013318    0.00319371
     atom    6 type  1   force =     0.00001065   -0.00000615    0.00014784
     atom    7 type  1   force =     0.00008517   -0.00004934    0.00118327
     atom    8 type  1   force =     0.00028743   -0.00016652    0.00399308
     atom    9 type  1   force =     0.00003750   -0.00002173    0.00052098

     Total force =     0.001210     Total SCF correction =     0.000098


     Computing stress (Cartesian axis) and pressure


     negative rho (up, down):  3.217E-05 0.000E+00
          total   stress  (Ry/bohr**3)                   (kbar)     P=      -17.25
  -0.00013575  -0.00000016   0.00000403          -19.97       -0.02        0.59
  -0.00000016  -0.00013594  -0.00000233           -0.02      -20.00       -0.34
   0.00000403  -0.00000233  -0.00008016            0.59       -0.34      -11.79

     Energy error            =      1.2E-05 Ry
     Gradient error          =      9.0E-04 Ry/Bohr

     bfgs converged in  12 scf cycles and  11 bfgs steps
     (criteria: energy <  1.0E-04 Ry, force <  1.0E-03 Ry/Bohr)

     End of BFGS Geometry Optimization

     Final energy             =    -758.4805415824 Ry

     File ./Ag_111/Ag_111.bfgs deleted, as requested
Begin final coordinates

ATOMIC_POSITIONS (angstrom)
Ag            4.4966093132        3.2579216187       16.3775762608
Ag            4.5463820009        0.5230756293       17.0691162415
Ag            4.3521639913        0.6356084416       14.3707610469    0   0   0
Ag            2.0953067866        1.9430990647       15.6301412645
Ag            1.8836520704        2.0657274352       12.6896991058    0   0   0
Ag            4.2916612481        3.3766698460       13.5302300763    0   0   0
Ag            4.0859519214        3.4958464288       10.6724247764    0   0   0
Ag            4.1464546645        0.7547850244       11.5129557470    0   0   0
Ag            1.6779427436        2.1849040180        9.8318938059    0   0   0
End final coordinates



     Writing all to output data dir ./Ag_111/Ag_111.save/

     init_run     :      3.15s CPU      6.60s WALL (       1 calls)
     electrons    :    121.72s CPU    135.78s WALL (      12 calls)
     update_pot   :      7.68s CPU      8.01s WALL (      11 calls)
     forces       :      8.93s CPU     10.40s WALL (      12 calls)
     force_dftd3  :      1.33s CPU      1.96s WALL (      12 calls)
     stress       :     35.45s CPU     36.34s WALL (      12 calls)
     stres_dftd3  :      0.47s CPU      0.67s WALL (      12 calls)

     Called by init_run:
     wfcinit      :      0.60s CPU      0.88s WALL (       1 calls)
     potinit      :      0.94s CPU      2.86s WALL (       1 calls)
     hinit0       :      1.29s CPU      2.16s WALL (       1 calls)

     Called by electrons:
     c_bands      :    101.01s CPU    106.11s WALL (      85 calls)
     sum_band     :     14.04s CPU     14.80s WALL (      85 calls)
     v_of_rho     :      3.05s CPU      8.98s WALL (      88 calls)
     newd         :      4.82s CPU      7.82s WALL (      88 calls)
     mix_rho      :      0.22s CPU      0.31s WALL (      85 calls)
     energy_dftd3 :      0.02s CPU      0.02s WALL (      12 calls)

     Called by c_bands:
     init_us_2    :      0.69s CPU      0.72s WALL (    1755 calls)
     init_us_2:cp :      0.68s CPU      0.72s WALL (    1755 calls)
     cegterg      :     91.22s CPU     94.13s WALL (     765 calls)

     Called by *egterg:
     cdiaghg      :     14.16s CPU     14.26s WALL (    3052 calls)
     h_psi        :     60.82s CPU     63.15s WALL (    3241 calls)
     s_psi        :      3.31s CPU      3.34s WALL (    3241 calls)
     g_psi        :      0.22s CPU      0.23s WALL (    2467 calls)

     Called by h_psi:
     h_psi:calbec :      6.40s CPU      6.94s WALL (    3241 calls)
     vloc_psi     :     50.65s CPU     52.40s WALL (    3241 calls)
     add_vuspsi   :      3.41s CPU      3.46s WALL (    3241 calls)

     General routines
     calbec       :     10.10s CPU     10.89s WALL (    4546 calls)
     fft          :      5.03s CPU     15.44s WALL (    1440 calls)
     ffts         :      0.54s CPU      0.56s WALL (     173 calls)
     fftw         :     51.51s CPU     53.22s WALL (  295082 calls)
     interpolate  :      0.64s CPU      1.32s WALL (      88 calls)

     Parallel routines

     PWSCF        :   2m58.85s CPU   3m20.52s WALL


   This run was terminated on:  11:29:35  18Jul2025            

=------------------------------------------------------------------------------=
   JOB DONE.
=------------------------------------------------------------------------------=
