
     Program PWSCF v.7.2 starts on 24Jul2025 at  6:32:24 

     This program is part of the open-source Quantum ESPRESSO suite
     for quantum simulation of materials; please cite
         "P. Giannozzi et al., J. Phys.:Condens. Matter 21 395502 (2009);
         "P. Giannozzi et al., J. Phys.:Condens. Matter 29 465901 (2017);
         "P. Giannozzi et al., J. Chem. Phys. 152 154105 (2020);
          URL http://www.quantum-espresso.org", 
     in publications or presentations arising from this work. More details at
     http://www.quantum-espresso.org/quote

     Parallel version (MPI & OpenMP), running on     192 processor cores
     Number of MPI processes:               192
     Threads/MPI process:                     1

     MPI processes distributed on     3 nodes
     243967 MiB available memory on the printing compute node when the environment starts

     Reading input from Ag_mp-2646971_110_hollow_0.in

     Current dimensions of program PWSCF are:
     Max number of different atomic species (ntypx) = 10
     Max number of k-points (npk) =  40000
     Max angular momentum in pseudopotentials (lmaxx) =  4
     Message from routine iosys:
     restart disabled: needed files not found

     K-points division:     npool     =       4
     R & G space division:  proc/nbgrp/npool/nimage =      48
     Subspace diagonalization in iterative solution of the eigenvalue problem:
     a serial algorithm will be used


     Parallelization info
     --------------------
     sticks:   dense  smooth     PW     G-vecs:    dense   smooth      PW
     Min          23      10      3                 6513     1878     342
     Max          24      11      4                 6550     1914     361
     Sum        1105     483    159               313371    91489   16791

     Using Slab Decomposition



     bravais-lattice index     =            0
     lattice parameter (alat)  =       5.4191  a.u.
     unit-cell volume          =    1658.9726 (a.u.)^3
     number of atoms/cell      =            7
     number of atomic types    =            2
     number of electrons       =        69.00
     number of Kohn-Sham states=           42
     kinetic-energy cutoff     =      55.0000  Ry
     charge density cutoff     =     500.0000  Ry
     scf convergence threshold =      1.0E-06
     mixing beta               =       0.3000
     number of iterations used =            8  plain     mixing
     energy convergence thresh.=      1.0E-04
     force convergence thresh. =      1.0E-03
     Exchange-correlation= PBE
                           (   1   4   3   4   0   0   0)
     nstep                     =          500


     celldm(1)=   5.419124  celldm(2)=   0.000000  celldm(3)=   0.000000
     celldm(4)=   0.000000  celldm(5)=   0.000000  celldm(6)=   0.000000

     crystal axes: (cart. coord. in units of alat)
               a(1) = (   1.000000   0.000000   0.000000 )  
               a(2) = (  -0.333333   0.942809   0.000000 )  
               a(3) = (   0.000000   0.000000  11.056769 )  

     reciprocal axes: (cart. coord. in units 2 pi/alat)
               b(1) = (  1.000000  0.353553 -0.000000 )  
               b(2) = (  0.000000  1.060660  0.000000 )  
               b(3) = ( -0.000000 -0.000000  0.090442 )  


     PseudoPot. # 1 for Li read from file:
     /home/ecastro/trabajo_final/pseudos/Li.pbe-s-rrkjus_psl.1.0.0.UPF
     MD5 check sum: 9f98d2529904d60b716d33989e9bc179
     Pseudo is Ultrasoft, Zval =  3.0
     Generated using &quot;atomic&quot; code by A. Dal Corso  v.6.3MaX
     Using radial grid of 1017 points,  4 beta functions with: 
                l(1) =   0
                l(2) =   0
                l(3) =   1
                l(4) =   1
     Q(r) pseudized with 0 coefficients 


     PseudoPot. # 2 for Ag read from file:
     /home/ecastro/trabajo_final/pseudos/Ag.pbe-n-rrkjus_psl.1.0.0.UPF
     MD5 check sum: 81cdf87bacf708300839c66ee23ce017
     Pseudo is Ultrasoft + core correction, Zval = 11.0
     Generated using &quot;atomic&quot; code by A. Dal Corso  v.6.2.2
     Using radial grid of 1237 points,  6 beta functions with: 
                l(1) =   0
                l(2) =   0
                l(3) =   1
                l(4) =   1
                l(5) =   2
                l(6) =   2
     Q(r) pseudized with 0 coefficients 


     atomic species   valence    mass     pseudopotential
        Li             3.00     6.94100     Li( 1.00)
        Ag            11.00   107.86820     Ag( 1.00)

     No symmetry found



   Cartesian axes

     site n.     atom                  positions (alat units)
         1           Ag  tau(   1) = (  -0.0000114   0.7071192   7.5445885  )
         2           Ag  tau(   2) = (   0.6666549   0.2357106   6.7356889  )
         3           Ag  tau(   3) = (   0.0000000   0.7071068   5.9366330  )
         4           Ag  tau(   4) = (   0.6666667   0.2357023   5.1201364  )
         5           Ag  tau(   5) = (   0.0000000   0.7071068   4.3036398  )
         6           Ag  tau(   6) = (   0.6666667   0.2357023   3.4871433  )
         7           Li  tau(   7) = (   0.8888775   0.0785798   8.2420172  )

     --------------------------------------------
     DFT-D3 Dispersion Correction (no 3-body):
     --------------------------------------------
       Reference C6 values for interpolation: 

         atom   Coordination number   C6
         Li         0.000          2326.89
         Li         0.987           170.64
         Ag         0.000           853.49
         Ag         0.968           537.23

       Values used:

         atom   Coordination number  R0_AB[au]  C6      C8
         Ag         8.528            3.147    537.23  47741.54
         Ag         7.735            3.147    537.23  47741.54
         Ag         7.659            3.147    537.23  47741.54
         Ag         7.511            3.147    537.23  47741.54
         Ag         7.500            3.147    537.23  47741.54
         Ag         5.503            3.147    537.23  47741.54
         Li         7.205            3.303    170.64  12899.87

         Molecular C6 ( Ry / a.u.^6 ) =     22982.53


     number of k points=    34  Methfessel-Paxton smearing, width (Ry)=  0.0300
                       cart. coord. in units 2pi/alat
        k(    1) = (   0.0000000   0.0000000   0.0000000), wk =   0.0312500
        k(    2) = (   0.0000000   0.1325825   0.0000000), wk =   0.0625000
        k(    3) = (   0.0000000   0.2651650   0.0000000), wk =   0.0625000
        k(    4) = (   0.0000000   0.3977476   0.0000000), wk =   0.0625000
        k(    5) = (   0.0000000  -0.5303301   0.0000000), wk =   0.0312500
        k(    6) = (   0.1250000   0.0441942   0.0000000), wk =   0.0625000
        k(    7) = (   0.1250000   0.1767767   0.0000000), wk =   0.0625000
        k(    8) = (   0.1250000   0.3093592   0.0000000), wk =   0.0625000
        k(    9) = (   0.1250000   0.4419417   0.0000000), wk =   0.0625000
        k(   10) = (   0.1250000  -0.4861359   0.0000000), wk =   0.0625000
        k(   11) = (   0.1250000  -0.3535534   0.0000000), wk =   0.0625000
        k(   12) = (   0.1250000  -0.2209709   0.0000000), wk =   0.0625000
        k(   13) = (   0.1250000  -0.0883883   0.0000000), wk =   0.0625000
        k(   14) = (   0.2500000   0.0883883   0.0000000), wk =   0.0625000
        k(   15) = (   0.2500000   0.2209709   0.0000000), wk =   0.0625000
        k(   16) = (   0.2500000   0.3535534   0.0000000), wk =   0.0625000
        k(   17) = (   0.2500000   0.4861359   0.0000000), wk =   0.0625000
        k(   18) = (   0.2500000  -0.4419417   0.0000000), wk =   0.0625000
        k(   19) = (   0.2500000  -0.3093592   0.0000000), wk =   0.0625000
        k(   20) = (   0.2500000  -0.1767767   0.0000000), wk =   0.0625000
        k(   21) = (   0.2500000  -0.0441942   0.0000000), wk =   0.0625000
        k(   22) = (   0.3750000   0.1325825   0.0000000), wk =   0.0625000
        k(   23) = (   0.3750000   0.2651650   0.0000000), wk =   0.0625000
        k(   24) = (   0.3750000   0.3977476   0.0000000), wk =   0.0625000
        k(   25) = (   0.3750000   0.5303301   0.0000000), wk =   0.0625000
        k(   26) = (   0.3750000  -0.3977476   0.0000000), wk =   0.0625000
        k(   27) = (   0.3750000  -0.2651650   0.0000000), wk =   0.0625000
        k(   28) = (   0.3750000  -0.1325825   0.0000000), wk =   0.0625000
        k(   29) = (   0.3750000  -0.0000000   0.0000000), wk =   0.0625000
        k(   30) = (  -0.5000000  -0.1767767   0.0000000), wk =   0.0312500
        k(   31) = (  -0.5000000  -0.0441942   0.0000000), wk =   0.0625000
        k(   32) = (  -0.5000000   0.0883883   0.0000000), wk =   0.0625000
        k(   33) = (  -0.5000000   0.2209709   0.0000000), wk =   0.0625000
        k(   34) = (  -0.5000000  -0.7071068   0.0000000), wk =   0.0312500

     Dense  grid:   313371 G-vectors     FFT dimensions: (  40,  40, 432)

     Smooth grid:    91489 G-vectors     FFT dimensions: (  25,  25, 288)

     Estimated max dynamical RAM per process >      14.50 MB

     Estimated total dynamical RAM >       2.49 GB
     Cannot read rho : file not found

     Initial potential from superposition of free atoms

     starting charge      68.9930, renormalised to      69.0000

     negative rho (up, down):  3.450E-05 0.000E+00
     Message from routine qexsd_readschema :
     xml data file ./Ag_mp-2646971_110_hollow_0/Ag_mp-2646971_110_hollow_0.save/data-
     Cannot read wfcs: file not found
     Starting wfcs are   59 randomized atomic wfcs

     total cpu time spent up to now is        7.3 secs

     per-process dynamical memory:   173.7 Mb

     Self-consistent Calculation

     iteration #  1     ecut=    55.00 Ry     beta= 0.30
     Davidson diagonalization with overlap
     c_bands:  1 eigenvalues not converged
     c_bands:  1 eigenvalues not converged
     c_bands:  1 eigenvalues not converged
     c_bands:  1 eigenvalues not converged
     ethr =  1.00E-05,  avg # of iterations = 18.4

     negative rho (up, down):  2.791E-05 0.000E+00

     total cpu time spent up to now is        8.9 secs

     total energy              =    -520.33134267 Ry
     estimated scf accuracy    <       0.66972148 Ry

     iteration #  2     ecut=    55.00 Ry     beta= 0.30
     Davidson diagonalization with overlap
     ethr =  9.71E-04,  avg # of iterations =  8.8

     negative rho (up, down):  5.865E-05 0.000E+00

     total cpu time spent up to now is        9.5 secs

     total energy              =    -515.74190185 Ry
     estimated scf accuracy    <     315.72352562 Ry

     iteration #  3     ecut=    55.00 Ry     beta= 0.30
     Davidson diagonalization with overlap
     ethr =  9.71E-04,  avg # of iterations =  7.3

     negative rho (up, down):  3.803E-05 0.000E+00

     total cpu time spent up to now is       10.1 secs

     total energy              =    -520.60828509 Ry
     estimated scf accuracy    <       0.13822946 Ry

     iteration #  4     ecut=    55.00 Ry     beta= 0.30
     Davidson diagonalization with overlap
     ethr =  2.00E-04,  avg # of iterations =  5.3

     negative rho (up, down):  5.183E-05 0.000E+00

     total cpu time spent up to now is       10.6 secs

     total energy              =    -520.60120582 Ry
     estimated scf accuracy    <       0.31564754 Ry

     iteration #  5     ecut=    55.00 Ry     beta= 0.30
     Davidson diagonalization with overlap
     ethr =  2.00E-04,  avg # of iterations =  1.6

     negative rho (up, down):  5.472E-05 0.000E+00

     total cpu time spent up to now is       10.9 secs

     total energy              =    -520.60995775 Ry
     estimated scf accuracy    <       0.12714797 Ry

     iteration #  6     ecut=    55.00 Ry     beta= 0.30
     Davidson diagonalization with overlap
     ethr =  1.84E-04,  avg # of iterations =  1.1

     negative rho (up, down):  3.585E-05 0.000E+00

     total cpu time spent up to now is       11.2 secs

     total energy              =    -520.61327368 Ry
     estimated scf accuracy    <       0.02731694 Ry

     iteration #  7     ecut=    55.00 Ry     beta= 0.30
     Davidson diagonalization with overlap
     ethr =  3.96E-05,  avg # of iterations =  2.3

     negative rho (up, down):  1.700E-05 0.000E+00

     total cpu time spent up to now is       11.5 secs

     total energy              =    -520.61304289 Ry
     estimated scf accuracy    <       0.01570779 Ry

     iteration #  8     ecut=    55.00 Ry     beta= 0.30
     Davidson diagonalization with overlap
     ethr =  2.28E-05,  avg # of iterations =  2.2

     negative rho (up, down):  6.099E-06 0.000E+00

     total cpu time spent up to now is       11.8 secs

     total energy              =    -520.61309508 Ry
     estimated scf accuracy    <       0.00121600 Ry

     iteration #  9     ecut=    55.00 Ry     beta= 0.30
     Davidson diagonalization with overlap
     ethr =  1.76E-06,  avg # of iterations =  9.2

     negative rho (up, down):  6.041E-06 0.000E+00

     total cpu time spent up to now is       12.3 secs

     total energy              =    -520.61321705 Ry
     estimated scf accuracy    <       0.00014772 Ry

     iteration # 10     ecut=    55.00 Ry     beta= 0.30
     Davidson diagonalization with overlap
     ethr =  2.14E-07,  avg # of iterations =  1.9

     negative rho (up, down):  7.555E-06 0.000E+00

     total cpu time spent up to now is       12.6 secs

     total energy              =    -520.61322539 Ry
     estimated scf accuracy    <       0.00001566 Ry

     iteration # 11     ecut=    55.00 Ry     beta= 0.30
     Davidson diagonalization with overlap
     ethr =  2.27E-08,  avg # of iterations =  3.0

     negative rho (up, down):  8.295E-06 0.000E+00

     total cpu time spent up to now is       12.9 secs

     total energy              =    -520.61322766 Ry
     estimated scf accuracy    <       0.00000280 Ry

     iteration # 12     ecut=    55.00 Ry     beta= 0.30
     Davidson diagonalization with overlap
     ethr =  4.06E-09,  avg # of iterations =  3.0

     negative rho (up, down):  1.008E-05 0.000E+00

     total cpu time spent up to now is       13.3 secs

     End of self-consistent calculation

          k = 0.0000 0.0000 0.0000 ( 11533 PWs)   bands (ev):

   -43.1809  -3.7306  -3.2809  -2.6812  -2.5230  -2.4459  -2.2641  -1.8929
    -1.8122  -1.6580  -1.4649  -1.3087  -1.2621  -1.2084  -1.1661  -1.1475
    -1.0017  -0.8863  -0.4637  -0.3875  -0.2408  -0.1792  -0.1509  -0.1240
    -0.0521  -0.0302   0.0014   0.0219   0.0234   0.0407   0.0751   0.1167
     0.2115   0.5053   0.8378   0.9046   2.1429   3.3591   3.8965   6.7828
     7.3588   7.7733

          k = 0.0000 0.1326 0.0000 ( 11489 PWs)   bands (ev):

   -43.1786  -3.3782  -2.9540  -2.4005  -2.3129  -2.2301  -2.0353  -1.8143
    -1.7359  -1.5794  -1.4147  -1.3667  -1.2955  -1.2544  -1.2165  -1.1132
    -1.0178  -0.8171  -0.7229  -0.4099  -0.3396  -0.2630  -0.2409  -0.1757
    -0.1376  -0.1004  -0.0825  -0.0321   0.0219   0.0724   0.0765   0.1455
     0.2299   0.4858   0.6384   1.6152   2.7434   3.8384   4.6095   7.0863
     7.6712   8.0372

          k = 0.0000 0.2652 0.0000 ( 11469 PWs)   bands (ev):

   -43.1734  -2.5597  -2.3904  -2.1763  -2.0704  -2.0171  -1.8908  -1.6375
    -1.6143  -1.5627  -1.5203  -1.4579  -1.3378  -1.1642  -0.9279  -0.8357
    -0.8106  -0.6974  -0.5035  -0.3879  -0.3222  -0.2535  -0.2103  -0.1863
    -0.1637  -0.1295  -0.0472   0.0240   0.0836   0.1046   0.1635   0.2330
     0.2657   0.4229   1.4205   2.6778   3.8232   5.0121   6.2544   7.9632
     8.5973   8.8218

          k = 0.0000 0.3977 0.0000 ( 11401 PWs)   bands (ev):

   -43.1680  -2.3897  -2.3801  -2.2207  -2.1977  -2.0685  -1.9206  -1.8088
    -1.7937  -1.7277  -1.6800  -1.5296  -1.3807  -0.9385  -0.8571  -0.4526
    -0.3558  -0.2721  -0.1775  -0.1227  -0.0836  -0.0372   0.0080   0.0399
     0.0628   0.1226   0.1957   0.3113   0.3469   0.4776   0.5286   1.1103
     1.2065   1.5914   2.6629   3.9058   5.0863   6.3450   7.0629   7.6371
     8.3043   8.5530

          k = 0.0000-0.5303 0.0000 ( 11418 PWs)   bands (ev):

   -43.1660  -2.4860  -2.4814  -2.2951  -2.2625  -2.1067  -1.9537  -1.8783
    -1.8670  -1.7947  -1.7792  -1.6385  -1.4628  -0.7969  -0.6349  -0.3242
    -0.2673  -0.1901  -0.1071  -0.0718  -0.0518  -0.0493   0.0213   0.0532
     0.1076   0.1942   0.3244   0.4101   0.4975   0.7542   0.8024   3.1933
     3.5794   3.6137   3.6777   3.6954   4.0765   4.1472   6.9284   7.3322
     7.7128   8.0347

          k = 0.1250 0.0442 0.0000 ( 11489 PWs)   bands (ev):

   -43.1786  -3.3782  -2.9540  -2.4005  -2.3129  -2.2301  -2.0353  -1.8143
    -1.7359  -1.5794  -1.4147  -1.3667  -1.2955  -1.2544  -1.2165  -1.1132
    -1.0178  -0.8171  -0.7229  -0.4099  -0.3396  -0.2630  -0.2409  -0.1757
    -0.1376  -0.1004  -0.0825  -0.0321   0.0219   0.0724   0.0765   0.1455
     0.2299   0.4858   0.6384   1.6152   2.7434   3.8384   4.6095   7.0863
     7.6712   8.0372

          k = 0.1250 0.1768 0.0000 ( 11509 PWs)   bands (ev):

   -43.1761  -2.8371  -2.4814  -2.0240  -1.9396  -1.8966  -1.8555  -1.7942
    -1.7080  -1.6685  -1.5017  -1.4882  -1.4062  -1.3046  -1.2896  -1.1678
    -1.1229  -0.8445  -0.7525  -0.4406  -0.4158  -0.2788  -0.2636  -0.1263
    -0.1082  -0.0157   0.0242   0.0350   0.0473   0.1123   0.1279   0.1386
     0.1780   0.3908   1.2553   2.3838   3.4611   4.5666   5.6420   7.5856
     8.1878   8.4763

          k = 0.1250 0.3094 0.0000 ( 11436 PWs)   bands (ev):

   -43.1707  -2.1454  -2.1059  -1.9968  -1.9217  -1.8765  -1.8006  -1.7407
    -1.6525  -1.5773  -1.4744  -1.3785  -1.2422  -1.0840  -0.9429  -0.8905
    -0.7899  -0.7612  -0.6279  -0.5329  -0.4143  -0.3545  -0.2170  -0.1437
    -0.0342   0.0340   0.0727   0.0928   0.1338   0.1410   0.1483   0.5242
     0.6370   1.2464   2.2945   3.5172   4.6254   5.8697   7.2996   8.6027
     9.2594   9.3945

          k = 0.1250 0.4419 0.0000 ( 11400 PWs)   bands (ev):

   -43.1659  -2.2673  -2.2509  -2.0616  -2.0557  -1.9292  -1.8496  -1.8297
    -1.7338  -1.6796  -1.6096  -1.4555  -1.3346  -0.9344  -0.8536  -0.6062
    -0.5516  -0.4357  -0.2935  -0.2237  -0.1911  -0.0602  -0.0213   0.0169
     0.0647   0.0905   0.1285   0.1628   0.2788   0.4806   0.5045   2.0805
     2.2957   2.8735   3.7732   4.7727   5.6993   6.2145   7.0708   7.4419
     8.1309   8.3603

          k = 0.1250-0.4861 0.0000 ( 11392 PWs)   bands (ev):

   -43.1644  -2.3103  -2.2990  -2.1182  -2.0973  -1.8838  -1.8156  -1.7924
    -1.7799  -1.6422  -1.6227  -1.4761  -1.4068  -1.0676  -0.9354  -0.6781
    -0.5978  -0.4111  -0.3241  -0.2106  -0.1889  -0.1439  -0.0820  -0.0356
    -0.0073   0.0556   0.0988   0.3873   0.5401   0.7777   0.7965   3.2235
     3.3901   3.6718   4.1847   4.6953   4.9155   5.0216   7.1443   7.3327
     7.9066   8.2788

          k = 0.1250-0.3536 0.0000 ( 11413 PWs)   bands (ev):

   -43.1671  -2.1552  -2.1386  -2.0001  -1.9717  -1.7629  -1.6799  -1.6279
    -1.5906  -1.5596  -1.5042  -1.4681  -1.4053  -1.2880  -1.2385  -0.9985
    -0.8724  -0.7049  -0.5189  -0.4349  -0.2633  -0.1864  -0.1223  -0.1105
    -0.0525   0.0485   0.0751   0.3161   0.3632   0.5440   0.5763   1.0834
     1.1813   1.6066   2.5441   3.7608   4.9480   6.2739   7.6470   8.4380
     8.8865   9.2472

          k = 0.1250-0.2210 0.0000 ( 11482 PWs)   bands (ev):

   -43.1725  -2.5877  -2.2780  -1.9515  -1.9278  -1.8261  -1.6787  -1.4980
    -1.4519  -1.4136  -1.3387  -1.3048  -1.2891  -1.2464  -1.1048  -1.0367
    -1.0102  -0.9352  -0.7303  -0.6277  -0.5371  -0.4565  -0.4170  -0.3035
    -0.2780  -0.2550  -0.2182  -0.1220  -0.0580   0.0971   0.1832   0.3653
     0.5123   0.6067   1.3062   2.4913   3.6393   4.8392   5.9888   7.8788
     8.4952   8.7550

          k = 0.1250-0.0884 0.0000 ( 11507 PWs)   bands (ev):

   -43.1772  -3.2607  -2.8240  -2.2935  -2.2372  -2.1517  -1.9234  -1.5961
    -1.5227  -1.3851  -1.2628  -1.2196  -1.2071  -1.1358  -1.0702  -1.0118
    -0.9772  -0.8972  -0.8225  -0.7179  -0.6347  -0.5489  -0.5271  -0.4156
    -0.3763  -0.2544  -0.2092  -0.1441  -0.0354   0.0190   0.1193   0.2650
     0.4581   0.6518   0.8015   1.6444   2.7926   3.9458   4.7436   7.1880
     7.7750   8.1296

          k = 0.2500 0.0884 0.0000 ( 11469 PWs)   bands (ev):

   -43.1734  -2.5597  -2.3904  -2.1763  -2.0704  -2.0171  -1.8908  -1.6375
    -1.6143  -1.5627  -1.5203  -1.4579  -1.3378  -1.1642  -0.9279  -0.8357
    -0.8106  -0.6974  -0.5035  -0.3879  -0.3222  -0.2535  -0.2103  -0.1863
    -0.1637  -0.1295  -0.0472   0.0240   0.0836   0.1046   0.1635   0.2330
     0.2657   0.4229   1.4205   2.6778   3.8232   5.0121   6.2544   7.9632
     8.5974   8.8219

          k = 0.2500 0.2210 0.0000 ( 11436 PWs)   bands (ev):

   -43.1707  -2.1454  -2.1059  -1.9968  -1.9217  -1.8765  -1.8006  -1.7407
    -1.6525  -1.5773  -1.4744  -1.3785  -1.2422  -1.0840  -0.9429  -0.8905
    -0.7899  -0.7612  -0.6279  -0.5329  -0.4143  -0.3545  -0.2170  -0.1437
    -0.0342   0.0340   0.0727   0.0928   0.1338   0.1410   0.1483   0.5242
     0.6370   1.2464   2.2945   3.5172   4.6254   5.8697   7.2995   8.6027
     9.2593   9.3944

          k = 0.2500 0.3536 0.0000 ( 11393 PWs)   bands (ev):

   -43.1658  -1.9818  -1.9550  -1.8086  -1.7558  -1.5856  -1.5781  -1.5387
    -1.4867  -1.4717  -1.4074  -1.3544  -1.2166  -1.1356  -1.0688  -0.9386
    -0.8818  -0.8466  -0.7972  -0.6267  -0.5500  -0.3224  -0.2979  -0.0999
    -0.0300   0.0571   0.1364   0.1407   0.1486   0.2244   0.2469   1.6831
     2.0256   2.7450   3.7584   4.9074   6.0306   7.2790   8.2964   8.8923
     9.3462   9.7039

          k = 0.2500 0.4861 0.0000 ( 11399 PWs)   bands (ev):

   -43.1618  -2.0079  -1.9963  -1.8947  -1.8810  -1.7878  -1.6847  -1.6183
    -1.5594  -1.5057  -1.4718  -1.2987  -1.2546  -1.1186  -1.0016  -0.9270
    -0.8419  -0.8195  -0.6016  -0.4901  -0.3904  -0.2545  -0.1281  -0.0602
     0.0412   0.1043   0.1441   0.2478   0.3257   0.5127   0.5263   3.7585
     4.1217   4.7583   5.5248   6.0628   6.3095   6.5717   7.4423   7.8312
     8.3390   8.8377

          k = 0.2500-0.4419 0.0000 ( 11392 PWs)   bands (ev):

   -43.1608  -2.0354  -2.0165  -1.9848  -1.9702  -1.8985  -1.8317  -1.7455
    -1.6286  -1.6192  -1.5165  -1.3815  -1.3055  -1.0840  -0.9719  -0.8696
    -0.7604  -0.7181  -0.5592  -0.4825  -0.2641  -0.2047  -0.1783  -0.0726
    -0.0559   0.0707   0.1917   0.3887   0.5513   0.7279   0.7532   3.3388
     3.6091   4.1334   4.8820   5.7813   6.6144   6.8563   7.5261   8.0055
     8.6896   8.9385

          k = 0.2500-0.3094 0.0000 ( 11406 PWs)   bands (ev):

   -43.1635  -2.1276  -1.9807  -1.9354  -1.9194  -1.8426  -1.8022  -1.7106
    -1.6504  -1.5682  -1.5269  -1.3782  -1.2926  -0.9654  -0.8532  -0.8104
    -0.7236  -0.6446  -0.5648  -0.5210  -0.4132  -0.3615  -0.2494  -0.1172
    -0.0974   0.0869   0.1871   0.2647   0.3047   0.4839   0.5900   1.1325
     1.4489   2.0876   2.9993   4.1152   5.2501   6.5673   7.9993   9.3328
     9.8963  10.0960

          k = 0.2500-0.1768 0.0000 ( 11422 PWs)   bands (ev):

   -43.1683  -2.3644  -2.0205  -1.9860  -1.7914  -1.6590  -1.5670  -1.5618
    -1.5111  -1.4659  -1.2807  -1.2476  -1.0966  -0.9083  -0.8713  -0.8708
    -0.7739  -0.7503  -0.6564  -0.6463  -0.5911  -0.5303  -0.3891  -0.3841
    -0.3060  -0.2857  -0.2653  -0.2329  -0.1245  -0.0797   0.3517   0.4053
     0.7144   0.9636   1.8178   2.9800   4.1099   5.3680   6.6256   8.3625
     8.9903   9.2301

          k = 0.2500-0.0442 0.0000 ( 11482 PWs)   bands (ev):

   -43.1725  -2.5877  -2.2780  -1.9515  -1.9278  -1.8261  -1.6787  -1.4980
    -1.4519  -1.4136  -1.3387  -1.3048  -1.2891  -1.2464  -1.1048  -1.0367
    -1.0102  -0.9352  -0.7303  -0.6277  -0.5371  -0.4565  -0.4170  -0.3035
    -0.2780  -0.2550  -0.2182  -0.1220  -0.0580   0.0971   0.1832   0.3653
     0.5123   0.6067   1.3062   2.4913   3.6393   4.8392   5.9888   7.8788
     8.4954   8.7550

          k = 0.3750 0.1326 0.0000 ( 11401 PWs)   bands (ev):

   -43.1680  -2.3897  -2.3801  -2.2207  -2.1977  -2.0685  -1.9206  -1.8088
    -1.7937  -1.7277  -1.6800  -1.5296  -1.3807  -0.9385  -0.8571  -0.4526
    -0.3558  -0.2721  -0.1775  -0.1227  -0.0836  -0.0372   0.0080   0.0399
     0.0628   0.1226   0.1957   0.3113   0.3469   0.4776   0.5286   1.1103
     1.2065   1.5914   2.6629   3.9058   5.0863   6.3450   7.0629   7.6371
     8.3043   8.5530

          k = 0.3750 0.2652 0.0000 ( 11400 PWs)   bands (ev):

   -43.1659  -2.2673  -2.2509  -2.0616  -2.0557  -1.9292  -1.8496  -1.8297
    -1.7338  -1.6796  -1.6096  -1.4555  -1.3346  -0.9344  -0.8536  -0.6062
    -0.5516  -0.4357  -0.2935  -0.2237  -0.1911  -0.0602  -0.0213   0.0169
     0.0647   0.0905   0.1285   0.1628   0.2788   0.4806   0.5045   2.0805
     2.2957   2.8736   3.7732   4.7727   5.6993   6.2145   7.0708   7.4420
     8.1309   8.3603

          k = 0.3750 0.3977 0.0000 ( 11399 PWs)   bands (ev):

   -43.1618  -2.0079  -1.9963  -1.8947  -1.8810  -1.7878  -1.6847  -1.6183
    -1.5594  -1.5056  -1.4718  -1.2987  -1.2546  -1.1186  -1.0016  -0.9270
    -0.8419  -0.8195  -0.6016  -0.4901  -0.3904  -0.2545  -0.1281  -0.0602
     0.0412   0.1043   0.1441   0.2478   0.3257   0.5127   0.5263   3.7585
     4.1217   4.7583   5.5248   6.0628   6.3095   6.5717   7.4423   7.8312
     8.3390   8.8377

          k = 0.3750 0.5303 0.0000 ( 11360 PWs)   bands (ev):

   -43.1581  -2.1101  -2.0493  -2.0075  -1.9733  -1.9477  -1.8599  -1.7564
    -1.7315  -1.6477  -1.5900  -1.4821  -1.3941  -1.2539  -1.0936  -0.7986
    -0.6970  -0.4121  -0.3277  -0.1555  -0.0644   0.0489   0.1191   0.1519
     0.1686   0.2498   0.2720   0.2792   0.3141   0.4950   0.5345   5.6090
     5.7637   6.1206   6.3541   6.6979   7.1279   7.5510   7.6709   7.9126
     8.1787   8.4473

          k = 0.3750-0.3977 0.0000 ( 11395 PWs)   bands (ev):

   -43.1573  -2.3136  -2.3027  -2.2767  -2.1478  -2.1068  -2.0646  -1.9239
    -1.8191  -1.7583  -1.7427  -1.5936  -1.3163  -1.1213  -0.7734  -0.6689
    -0.4562  -0.2165  -0.1622  -0.1100  -0.0624   0.1255   0.1643   0.2755
     0.3112   0.4062   0.4936   0.5647   0.6242   0.6732   0.6906   3.5508
     4.0306   4.7490   5.5553   6.4928   7.6197   8.1606   8.5340   8.7465
     9.0509   9.1528

          k = 0.3750-0.2652 0.0000 ( 11394 PWs)   bands (ev):

   -43.1595  -2.3556  -2.2717  -2.2189  -2.1413  -2.0634  -2.0329  -1.9091
    -1.7497  -1.7473  -1.6838  -1.4580  -1.2489  -0.9837  -0.7446  -0.5455
    -0.4322  -0.3115  -0.2315  -0.1205  -0.0949   0.0768   0.0914   0.1733
     0.2935   0.2990   0.3845   0.4701   0.5383   0.5693   0.6369   1.5689
     2.1815   3.0098   3.9465   4.9685   6.0863   7.4119   8.7505   9.6445
    10.3817  10.5400

          k = 0.3750-0.1326 0.0000 ( 11406 PWs)   bands (ev):

   -43.1635  -2.1276  -1.9807  -1.9354  -1.9194  -1.8426  -1.8022  -1.7106
    -1.6504  -1.5682  -1.5269  -1.3782  -1.2926  -0.9654  -0.8532  -0.8104
    -0.7236  -0.6446  -0.5648  -0.5210  -0.4132  -0.3615  -0.2494  -0.1172
    -0.0974   0.0869   0.1871   0.2647   0.3047   0.4839   0.5900   1.1325
     1.4489   2.0876   2.9994   4.1152   5.2501   6.5673   7.9993   9.3328
     9.8963  10.0959

          k = 0.3750-0.0000 0.0000 ( 11413 PWs)   bands (ev):

   -43.1671  -2.1552  -2.1386  -2.0001  -1.9717  -1.7629  -1.6799  -1.6279
    -1.5906  -1.5596  -1.5042  -1.4681  -1.4053  -1.2880  -1.2385  -0.9985
    -0.8724  -0.7049  -0.5189  -0.4349  -0.2633  -0.1864  -0.1223  -0.1105
    -0.0525   0.0485   0.0751   0.3161   0.3632   0.5440   0.5763   1.0834
     1.1813   1.6066   2.5441   3.7608   4.9480   6.2739   7.6470   8.4380
     8.8865   9.2474

          k =-0.5000-0.1768 0.0000 ( 11418 PWs)   bands (ev):

   -43.1660  -2.4860  -2.4814  -2.2951  -2.2625  -2.1067  -1.9537  -1.8783
    -1.8670  -1.7947  -1.7792  -1.6385  -1.4628  -0.7969  -0.6349  -0.3242
    -0.2673  -0.1901  -0.1071  -0.0718  -0.0518  -0.0493   0.0213   0.0532
     0.1076   0.1942   0.3244   0.4101   0.4975   0.7542   0.8024   3.1933
     3.5794   3.6137   3.6777   3.6954   4.0765   4.1472   6.9284   7.3322
     7.7128   8.0347

          k =-0.5000-0.0442 0.0000 ( 11392 PWs)   bands (ev):

   -43.1644  -2.3103  -2.2990  -2.1182  -2.0973  -1.8838  -1.8156  -1.7924
    -1.7799  -1.6422  -1.6227  -1.4761  -1.4068  -1.0676  -0.9354  -0.6781
    -0.5978  -0.4111  -0.3241  -0.2106  -0.1889  -0.1439  -0.0820  -0.0356
    -0.0073   0.0556   0.0988   0.3873   0.5401   0.7777   0.7965   3.2235
     3.3901   3.6718   4.1847   4.6953   4.9155   5.0216   7.1443   7.3327
     7.9066   8.2792

          k =-0.5000 0.0884 0.0000 ( 11392 PWs)   bands (ev):

   -43.1608  -2.0354  -2.0165  -1.9848  -1.9702  -1.8985  -1.8317  -1.7455
    -1.6286  -1.6192  -1.5165  -1.3815  -1.3055  -1.0840  -0.9719  -0.8696
    -0.7604  -0.7181  -0.5592  -0.4825  -0.2641  -0.2047  -0.1783  -0.0726
    -0.0559   0.0707   0.1917   0.3887   0.5513   0.7279   0.7532   3.3388
     3.6091   4.1334   4.8820   5.7813   6.6144   6.8563   7.5260   8.0055
     8.6895   8.9385

          k =-0.5000 0.2210 0.0000 ( 11395 PWs)   bands (ev):

   -43.1573  -2.3136  -2.3027  -2.2767  -2.1478  -2.1068  -2.0646  -1.9239
    -1.8191  -1.7583  -1.7427  -1.5936  -1.3163  -1.1213  -0.7734  -0.6689
    -0.4562  -0.2165  -0.1622  -0.1100  -0.0624   0.1255   0.1643   0.2755
     0.3112   0.4062   0.4936   0.5647   0.6242   0.6732   0.6906   3.5508
     4.0306   4.7490   5.5553   6.4928   7.6196   8.1606   8.5339   8.7465
     9.0509   9.1528

          k =-0.5000-0.7071 0.0000 ( 11406 PWs)   bands (ev):

   -43.1560  -2.4831  -2.4501  -2.4351  -2.3211  -2.2248  -2.2111  -2.1162
    -1.9236  -1.8426  -1.8008  -1.5449  -1.2607  -1.0537  -0.6351  -0.4967
    -0.4725  -0.2300  -0.1298  -0.0880  -0.0425   0.1333   0.3006   0.5748
     0.6089   0.6403   0.7195   0.7757   0.8584   0.9279   0.9574   3.7386
     4.4556   5.2533   5.9107   7.0856   7.3520   7.5256   7.8942   8.4046
     8.5736   9.1918

     the Fermi energy is     3.6137 ev

!    total energy              =    -520.61322812 Ry
     estimated scf accuracy    <       0.00000042 Ry
     smearing contrib. (-TS)   =      -0.00291055 Ry
     internal energy E=F+TS    =    -520.61031757 Ry

     The total energy is F=E-TS. E is the sum of the following terms:
     one-electron contribution =   -6334.55449985 Ry
     hartree contribution      =    3217.82066778 Ry
     xc contribution           =    -137.52860792 Ry
     ewald contribution        =    2733.83566013 Ry
     DFT-D3 Dispersion         =      -0.18353770 Ry

     convergence has been achieved in  12 iterations

     negative rho (up, down):  1.008E-05 0.000E+00

     Forces acting on atoms (cartesian axes, Ry/au):

     atom    1 type  2   force =     0.00566359   -0.00400898   -0.00345423
     atom    2 type  2   force =    -0.00019220    0.00013906   -0.00278918
     atom    3 type  2   force =    -0.00002331    0.00001615   -0.00446292
     atom    4 type  2   force =    -0.00000015    0.00000265    0.00057160
     atom    5 type  2   force =    -0.00000350    0.00000108    0.00348095
     atom    6 type  2   force =     0.00000159   -0.00000142    0.00319038
     atom    7 type  1   force =    -0.00544602    0.00385146    0.00346340
     The non-local contrib.  to forces
     atom    1 type  2   force =    -0.01591660    0.01125027    0.01218004
     atom    2 type  2   force =    -0.00076837    0.00054494    0.01354641
     atom    3 type  2   force =    -0.00010480    0.00007366   -0.00377275
     atom    4 type  2   force =    -0.00000485    0.00000425   -0.00614146
     atom    5 type  2   force =    -0.00000418    0.00000223   -0.02885128
     atom    6 type  2   force =     0.00000079   -0.00000093   -0.06691177
     atom    7 type  1   force =    -0.00303392    0.00214531    0.05275655
     The ionic contribution  to forces
     atom    1 type  2   force =     0.13378797   -0.09462068  140.48016875
     atom    2 type  2   force =    -0.00124933    0.00090165   81.43089820
     atom    3 type  2   force =    -0.00000236    0.00000170   21.51569464
     atom    4 type  2   force =     0.00000014   -0.00000010  -37.52735799
     atom    5 type  2   force =    -0.00000000    0.00000000  -96.48944730
     atom    6 type  2   force =    -0.00000000   -0.00000000 -154.71368767
     atom    7 type  1   force =    -0.13253642    0.09371742   45.30373136
     The local contribution  to forces
     atom    1 type  2   force =    -0.11056707    0.07819248 -140.49655981
     atom    2 type  2   force =     0.00181812   -0.00130690  -81.44521625
     atom    3 type  2   force =     0.00008084   -0.00005985  -21.51824907
     atom    4 type  2   force =     0.00000182   -0.00000415   37.53283764
     atom    5 type  2   force =     0.00000117   -0.00000093   96.51717448
     atom    6 type  2   force =     0.00000040   -0.00000067  154.77748122
     atom    7 type  1   force =     0.12952230   -0.09158660  -45.35038352
     The core correction contribution to forces
     atom    1 type  2   force =    -0.00101689    0.00071873    0.00343651
     atom    2 type  2   force =    -0.00001984    0.00001379   -0.00014893
     atom    3 type  2   force =    -0.00000198    0.00000123    0.00075577
     atom    4 type  2   force =    -0.00000024   -0.00000007   -0.00013281
     atom    5 type  2   force =     0.00000011   -0.00000013   -0.00013370
     atom    6 type  2   force =     0.00000003    0.00000001    0.00475539
     atom    7 type  1   force =     0.00000000    0.00000000    0.00000000
     The Hubbard contrib.    to forces
     atom    1 type  2   force =     0.00000000    0.00000000    0.00000000
     atom    2 type  2   force =     0.00000000    0.00000000    0.00000000
     atom    3 type  2   force =     0.00000000    0.00000000    0.00000000
     atom    4 type  2   force =     0.00000000    0.00000000    0.00000000
     atom    5 type  2   force =     0.00000000    0.00000000    0.00000000
     atom    6 type  2   force =     0.00000000    0.00000000    0.00000000
     atom    7 type  1   force =     0.00000000    0.00000000    0.00000000
     The SCF correction term to forces
     atom    1 type  2   force =    -0.00002146    0.00002388   -0.00101728
     atom    2 type  2   force =     0.00001013   -0.00000264    0.00023053
     atom    3 type  2   force =     0.00000372   -0.00000004    0.00084876
     atom    4 type  2   force =     0.00000180    0.00000319    0.00079002
     atom    5 type  2   force =    -0.00000178    0.00000040    0.00120161
     atom    6 type  2   force =    -0.00000082    0.00000065   -0.00026397
     atom    7 type  1   force =     0.00001330   -0.00000874   -0.00002017

     DFT-D3 dispersion contribution to forces:
     atom    1 type  2   force =    -0.00060355    0.00042683   -0.00163498
     atom    2 type  2   force =     0.00001590   -0.00001130   -0.00207169
     atom    3 type  2   force =     0.00000010   -0.00000007    0.00028718
     atom    4 type  2   force =     0.00000000   -0.00000000    0.00060364
     atom    5 type  2   force =     0.00000000   -0.00000000    0.00356458
     atom    6 type  2   force =     0.00000000   -0.00000000    0.00184463
     atom    7 type  1   force =     0.00058754   -0.00041545   -0.00259337

     Total force =     0.012921     Total SCF correction =     0.001987
     SCF correction compared to forces is large: reduce conv_thr to get better values


     Computing stress (Cartesian axis) and pressure


     negative rho (up, down):  1.008E-05 0.000E+00
          total   stress  (Ry/bohr**3)                   (kbar)     P=      -19.40
  -0.00013390  -0.00002534  -0.00001170          -19.70       -3.73       -1.72
  -0.00002534  -0.00015182   0.00000828           -3.73      -22.33        1.22
  -0.00001170   0.00000828  -0.00011002           -1.72        1.22      -16.18


     BFGS Geometry Optimization
     Energy error            =      0.0E+00 Ry
     Gradient error          =      5.7E-03 Ry/Bohr

     number of scf cycles    =   1
     number of bfgs steps    =   0

     energy             new  =    -520.6132281205 Ry

     new trust radius        =       0.0077511180 bohr
     new conv_thr            =       0.0000010000 Ry


ATOMIC_POSITIONS (angstrom)
Ag            0.0029644338        2.0256678404       21.6336139361
Ag            1.9116491730        0.6760154030       19.3143030823
Ag           -0.0000123350        2.0277622919       17.0219833560
Ag            1.9117844868        0.6759193161       14.6831991624
Ag           -0.0000018513        2.0277543189       12.3432903843
Ag            1.9117854088        0.6759171635       10.0016882760
Li            2.5461315714        0.2273796318       23.6372745862



     Writing config-only to output data dir ./Ag_mp-2646971_110_hollow_0/Ag_mp-2646971_110_hollow_0.save/
     NEW-OLD atomic charge density approx. for the potential

     negative rho (up, down):  1.014E-05 0.000E+00

     total cpu time spent up to now is       14.6 secs

     per-process dynamical memory:   182.2 Mb

     Self-consistent Calculation

     iteration #  1     ecut=    55.00 Ry     beta= 0.30
     Davidson diagonalization with overlap
     ethr =  1.00E-06,  avg # of iterations =  3.2

     negative rho (up, down):  1.012E-05 0.000E+00

     total cpu time spent up to now is       15.2 secs

     total energy              =    -520.61329553 Ry
     estimated scf accuracy    <       0.00018440 Ry

     iteration #  2     ecut=    55.00 Ry     beta= 0.30
     Davidson diagonalization with overlap
     ethr =  2.67E-07,  avg # of iterations =  4.5

     negative rho (up, down):  1.020E-05 0.000E+00

     total cpu time spent up to now is       15.7 secs

     total energy              =    -520.61246616 Ry
     estimated scf accuracy    <       0.06127385 Ry

     iteration #  3     ecut=    55.00 Ry     beta= 0.30
     Davidson diagonalization with overlap
     ethr =  2.67E-07,  avg # of iterations =  5.1

     negative rho (up, down):  1.032E-05 0.000E+00

     total cpu time spent up to now is       16.1 secs

     total energy              =    -520.61337407 Ry
     estimated scf accuracy    <       0.00054741 Ry

     iteration #  4     ecut=    55.00 Ry     beta= 0.30
     Davidson diagonalization with overlap
     ethr =  2.67E-07,  avg # of iterations =  1.5

     negative rho (up, down):  1.028E-05 0.000E+00

     total cpu time spent up to now is       16.4 secs

     total energy              =    -520.61339122 Ry
     estimated scf accuracy    <       0.00000214 Ry

     iteration #  5     ecut=    55.00 Ry     beta= 0.30
     Davidson diagonalization with overlap
     ethr =  3.09E-09,  avg # of iterations =  4.0

     negative rho (up, down):  1.013E-05 0.000E+00

     total cpu time spent up to now is       16.8 secs

     End of self-consistent calculation

          k = 0.0000 0.0000 0.0000 ( 11533 PWs)   bands (ev):

   -43.1802  -3.7322  -3.2810  -2.6811  -2.5233  -2.4467  -2.2640  -1.8930
    -1.8125  -1.6577  -1.4643  -1.3088  -1.2613  -1.2077  -1.1657  -1.1489
    -1.0012  -0.8870  -0.4639  -0.3864  -0.2397  -0.1774  -0.1510  -0.1239
    -0.0519  -0.0299   0.0012   0.0225   0.0247   0.0405   0.0748   0.1165
     0.2122   0.5050   0.8396   0.9050   2.1433   3.3590   3.8963   6.7835
     7.3887   7.7765

          k = 0.0000 0.1326 0.0000 ( 11489 PWs)   bands (ev):

   -43.1780  -3.3797  -2.9542  -2.4004  -2.3134  -2.2307  -2.0352  -1.8144
    -1.7363  -1.5792  -1.4140  -1.3661  -1.2958  -1.2540  -1.2178  -1.1132
    -1.0173  -0.8172  -0.7224  -0.4084  -0.3391  -0.2624  -0.2404  -0.1758
    -0.1372  -0.1000  -0.0819  -0.0322   0.0225   0.0728   0.0769   0.1459
     0.2302   0.4866   0.6386   1.6160   2.7438   3.8382   4.6102   7.0872
     7.7004   8.0400

          k = 0.0000 0.2652 0.0000 ( 11469 PWs)   bands (ev):

   -43.1728  -2.5610  -2.3911  -2.1764  -2.0701  -2.0179  -1.8908  -1.6370
    -1.6140  -1.5641  -1.5212  -1.4579  -1.3376  -1.1632  -0.9277  -0.8356
    -0.8104  -0.6972  -0.5031  -0.3872  -0.3218  -0.2531  -0.2094  -0.1864
    -0.1637  -0.1293  -0.0468   0.0242   0.0843   0.1050   0.1638   0.2336
     0.2664   0.4232   1.4213   2.6782   3.8234   5.0129   6.2556   7.9648
     8.6207   8.8276

          k = 0.0000 0.3977 0.0000 ( 11401 PWs)   bands (ev):

   -43.1674  -2.3905  -2.3810  -2.2207  -2.1982  -2.0683  -1.9206  -1.8091
    -1.7939  -1.7278  -1.6801  -1.5293  -1.3805  -0.9375  -0.8571  -0.4527
    -0.3546  -0.2720  -0.1772  -0.1225  -0.0838  -0.0372   0.0084   0.0404
     0.0633   0.1233   0.1959   0.3113   0.3471   0.4783   0.5294   1.1107
     1.2066   1.5920   2.6636   3.9051   5.0860   6.3458   7.0636   7.6380
     8.3057   8.5549

          k = 0.0000-0.5303 0.0000 ( 11418 PWs)   bands (ev):

   -43.1653  -2.4868  -2.4824  -2.2951  -2.2628  -2.1064  -1.9537  -1.8788
    -1.8671  -1.7952  -1.7787  -1.6381  -1.4627  -0.7955  -0.6350  -0.3222
    -0.2681  -0.1901  -0.1071  -0.0716  -0.0520  -0.0492   0.0215   0.0538
     0.1078   0.1948   0.3246   0.4098   0.4976   0.7552   0.8033   3.1972
     3.5794   3.6134   3.6773   3.6952   4.0767   4.1422   6.9295   7.3330
     7.7139   8.0371

          k = 0.1250 0.0442 0.0000 ( 11489 PWs)   bands (ev):

   -43.1780  -3.3797  -2.9542  -2.4004  -2.3134  -2.2307  -2.0352  -1.8144
    -1.7363  -1.5792  -1.4140  -1.3661  -1.2958  -1.2540  -1.2178  -1.1132
    -1.0173  -0.8172  -0.7224  -0.4084  -0.3391  -0.2624  -0.2404  -0.1758
    -0.1372  -0.1000  -0.0819  -0.0322   0.0225   0.0728   0.0769   0.1459
     0.2302   0.4866   0.6386   1.6160   2.7438   3.8382   4.6102   7.0872
     7.7003   8.0400

          k = 0.1250 0.1768 0.0000 ( 11509 PWs)   bands (ev):

   -43.1755  -2.8386  -2.4818  -2.0241  -1.9401  -1.8970  -1.8555  -1.7947
    -1.7078  -1.6685  -1.5014  -1.4879  -1.4063  -1.3046  -1.2903  -1.1671
    -1.1227  -0.8443  -0.7521  -0.4396  -0.4144  -0.2782  -0.2628  -0.1253
    -0.1083  -0.0159   0.0243   0.0351   0.0473   0.1125   0.1282   0.1389
     0.1785   0.3910   1.2559   2.3843   3.4614   4.5672   5.6432   7.5868
     8.2146   8.4800

          k = 0.1250 0.3094 0.0000 ( 11436 PWs)   bands (ev):

   -43.1700  -2.1457  -2.1079  -1.9972  -1.9212  -1.8773  -1.8008  -1.7412
    -1.6523  -1.5772  -1.4746  -1.3788  -1.2413  -1.0832  -0.9425  -0.8901
    -0.7900  -0.7616  -0.6272  -0.5324  -0.4138  -0.3540  -0.2161  -0.1427
    -0.0337   0.0339   0.0726   0.0930   0.1339   0.1415   0.1488   0.5244
     0.6371   1.2470   2.2953   3.5170   4.6257   5.8714   7.3008   8.6053
     9.2688   9.4081

          k = 0.1250 0.4419 0.0000 ( 11400 PWs)   bands (ev):

   -43.1652  -2.2681  -2.2519  -2.0618  -2.0560  -1.9288  -1.8504  -1.8299
    -1.7341  -1.6796  -1.6095  -1.4551  -1.3344  -0.9336  -0.8535  -0.6057
    -0.5511  -0.4353  -0.2930  -0.2236  -0.1906  -0.0598  -0.0211   0.0171
     0.0649   0.0908   0.1289   0.1632   0.2786   0.4817   0.5050   2.0808
     2.2959   2.8742   3.7733   4.7717   5.6991   6.2144   7.0724   7.4434
     8.1328   8.3617

          k = 0.1250-0.4861 0.0000 ( 11392 PWs)   bands (ev):

   -43.1638  -2.3111  -2.3000  -2.1184  -2.0977  -1.8832  -1.8161  -1.7922
    -1.7807  -1.6423  -1.6227  -1.4757  -1.4066  -1.0675  -0.9353  -0.6785
    -0.5970  -0.4103  -0.3235  -0.2107  -0.1889  -0.1432  -0.0815  -0.0353
    -0.0069   0.0560   0.0995   0.3878   0.5401   0.7786   0.7975   3.2251
     3.3900   3.6723   4.1844   4.6942   4.9145   5.0213   7.1453   7.3333
     7.9083   8.2799

          k = 0.1250-0.3536 0.0000 ( 11413 PWs)   bands (ev):

   -43.1664  -2.1559  -2.1398  -2.0009  -1.9721  -1.7627  -1.6804  -1.6273
    -1.5912  -1.5598  -1.5043  -1.4694  -1.4048  -1.2875  -1.2381  -0.9986
    -0.8725  -0.7047  -0.5182  -0.4337  -0.2631  -0.1862  -0.1222  -0.1099
    -0.0519   0.0494   0.0759   0.3161   0.3636   0.5451   0.5770   1.0838
     1.1815   1.6072   2.5452   3.7608   4.9479   6.2750   7.6479   8.4394
     8.8880   9.2495

          k = 0.1250-0.2210 0.0000 ( 11482 PWs)   bands (ev):

   -43.1718  -2.5893  -2.2786  -1.9521  -1.9285  -1.8265  -1.6789  -1.4979
    -1.4513  -1.4147  -1.3388  -1.3049  -1.2904  -1.2461  -1.1041  -1.0363
    -1.0102  -0.9351  -0.7297  -0.6270  -0.5367  -0.4563  -0.4168  -0.3032
    -0.2772  -0.2547  -0.2172  -0.1216  -0.0574   0.0980   0.1837   0.3655
     0.5131   0.6080   1.3075   2.4919   3.6395   4.8395   5.9898   7.8800
     8.5202   8.7596

          k = 0.1250-0.0884 0.0000 ( 11507 PWs)   bands (ev):

   -43.1766  -3.2623  -2.8242  -2.2938  -2.2377  -2.1523  -1.9233  -1.5961
    -1.5231  -1.3848  -1.2643  -1.2188  -1.2069  -1.1357  -1.0702  -1.0113
    -0.9772  -0.8969  -0.8225  -0.7170  -0.6344  -0.5487  -0.5273  -0.4155
    -0.3758  -0.2537  -0.2088  -0.1432  -0.0341   0.0195   0.1196   0.2655
     0.4578   0.6528   0.8033   1.6449   2.7929   3.9455   4.7441   7.1888
     7.8040   8.1326

          k = 0.2500 0.0884 0.0000 ( 11469 PWs)   bands (ev):

   -43.1728  -2.5610  -2.3911  -2.1764  -2.0701  -2.0179  -1.8908  -1.6370
    -1.6140  -1.5641  -1.5212  -1.4579  -1.3376  -1.1632  -0.9277  -0.8356
    -0.8104  -0.6972  -0.5031  -0.3872  -0.3218  -0.2531  -0.2094  -0.1864
    -0.1637  -0.1293  -0.0468   0.0242   0.0843   0.1050   0.1638   0.2336
     0.2664   0.4232   1.4213   2.6782   3.8234   5.0129   6.2556   7.9648
     8.6208   8.8277

          k = 0.2500 0.2210 0.0000 ( 11436 PWs)   bands (ev):

   -43.1700  -2.1457  -2.1079  -1.9972  -1.9212  -1.8773  -1.8008  -1.7412
    -1.6523  -1.5772  -1.4746  -1.3788  -1.2413  -1.0832  -0.9425  -0.8901
    -0.7900  -0.7616  -0.6272  -0.5324  -0.4138  -0.3540  -0.2161  -0.1427
    -0.0337   0.0339   0.0726   0.0930   0.1339   0.1415   0.1488   0.5244
     0.6371   1.2470   2.2953   3.5170   4.6257   5.8714   7.3008   8.6053
     9.2689   9.4081

          k = 0.2500 0.3536 0.0000 ( 11393 PWs)   bands (ev):

   -43.1652  -1.9825  -1.9561  -1.8093  -1.7565  -1.5857  -1.5787  -1.5390
    -1.4874  -1.4726  -1.4074  -1.3553  -1.2159  -1.1335  -1.0678  -0.9382
    -0.8820  -0.8468  -0.7968  -0.6263  -0.5490  -0.3213  -0.2971  -0.0989
    -0.0294   0.0575   0.1366   0.1414   0.1488   0.2246   0.2472   1.6831
     2.0259   2.7457   3.7589   4.9069   6.0312   7.2820   8.2998   8.8922
     9.3461   9.7049

          k = 0.2500 0.4861 0.0000 ( 11399 PWs)   bands (ev):

   -43.1612  -2.0087  -1.9972  -1.8954  -1.8822  -1.7880  -1.6851  -1.6186
    -1.5600  -1.5057  -1.4730  -1.2978  -1.2537  -1.1184  -1.0017  -0.9275
    -0.8411  -0.8187  -0.6007  -0.4896  -0.3899  -0.2539  -0.1271  -0.0594
     0.0418   0.1051   0.1449   0.2482   0.3257   0.5135   0.5271   3.7590
     4.1217   4.7587   5.5247   6.0636   6.3091   6.5718   7.4436   7.8324
     8.3400   8.8387

          k = 0.2500-0.4419 0.0000 ( 11392 PWs)   bands (ev):

   -43.1602  -2.0354  -2.0170  -1.9864  -1.9716  -1.8993  -1.8324  -1.7456
    -1.6284  -1.6195  -1.5168  -1.3813  -1.3053  -1.0840  -0.9714  -0.8703
    -0.7597  -0.7178  -0.5579  -0.4821  -0.2638  -0.2036  -0.1781  -0.0720
    -0.0551   0.0716   0.1928   0.3892   0.5514   0.7288   0.7540   3.3393
     3.6093   4.1343   4.8826   5.7816   6.6152   6.8558   7.5262   8.0066
     8.6914   8.9400

          k = 0.2500-0.3094 0.0000 ( 11406 PWs)   bands (ev):

   -43.1629  -2.1288  -1.9815  -1.9358  -1.9202  -1.8434  -1.8026  -1.7112
    -1.6503  -1.5686  -1.5274  -1.3782  -1.2924  -0.9650  -0.8537  -0.8093
    -0.7234  -0.6446  -0.5639  -0.5206  -0.4125  -0.3612  -0.2486  -0.1161
    -0.0972   0.0876   0.1880   0.2649   0.3051   0.4841   0.5918   1.1326
     1.4494   2.0886   3.0010   4.1158   5.2503   6.5683   8.0004   9.3352
     9.8994  10.1045

          k = 0.2500-0.1768 0.0000 ( 11422 PWs)   bands (ev):

   -43.1676  -2.3659  -2.0208  -1.9870  -1.7919  -1.6592  -1.5672  -1.5631
    -1.5126  -1.4658  -1.2800  -1.2484  -1.0963  -0.9086  -0.8710  -0.8700
    -0.7742  -0.7507  -0.6557  -0.6453  -0.5905  -0.5299  -0.3888  -0.3836
    -0.3052  -0.2856  -0.2644  -0.2323  -0.1232  -0.0789   0.3515   0.4063
     0.7163   0.9646   1.8196   2.9807   4.1102   5.3685   6.6265   8.3641
     9.0099   9.2387

          k = 0.2500-0.0442 0.0000 ( 11482 PWs)   bands (ev):

   -43.1718  -2.5893  -2.2786  -1.9521  -1.9285  -1.8265  -1.6789  -1.4979
    -1.4513  -1.4147  -1.3388  -1.3049  -1.2904  -1.2461  -1.1041  -1.0363
    -1.0102  -0.9351  -0.7297  -0.6270  -0.5367  -0.4563  -0.4168  -0.3032
    -0.2772  -0.2547  -0.2172  -0.1216  -0.0574   0.0980   0.1837   0.3655
     0.5131   0.6080   1.3075   2.4919   3.6395   4.8395   5.9898   7.8800
     8.5202   8.7596

          k = 0.3750 0.1326 0.0000 ( 11401 PWs)   bands (ev):

   -43.1674  -2.3905  -2.3810  -2.2207  -2.1982  -2.0683  -1.9206  -1.8091
    -1.7939  -1.7278  -1.6801  -1.5293  -1.3805  -0.9375  -0.8571  -0.4527
    -0.3546  -0.2720  -0.1772  -0.1225  -0.0838  -0.0372   0.0084   0.0404
     0.0633   0.1233   0.1959   0.3113   0.3471   0.4783   0.5294   1.1107
     1.2066   1.5920   2.6636   3.9051   5.0860   6.3458   7.0636   7.6380
     8.3055   8.5554

          k = 0.3750 0.2652 0.0000 ( 11400 PWs)   bands (ev):

   -43.1652  -2.2681  -2.2519  -2.0618  -2.0560  -1.9288  -1.8504  -1.8299
    -1.7341  -1.6796  -1.6095  -1.4551  -1.3344  -0.9336  -0.8535  -0.6057
    -0.5511  -0.4353  -0.2930  -0.2236  -0.1906  -0.0598  -0.0211   0.0171
     0.0649   0.0908   0.1289   0.1632   0.2786   0.4817   0.5050   2.0808
     2.2959   2.8742   3.7733   4.7717   5.6991   6.2144   7.0724   7.4434
     8.1328   8.3617

          k = 0.3750 0.3977 0.0000 ( 11399 PWs)   bands (ev):

   -43.1612  -2.0087  -1.9972  -1.8954  -1.8822  -1.7880  -1.6851  -1.6186
    -1.5600  -1.5057  -1.4730  -1.2978  -1.2537  -1.1184  -1.0017  -0.9275
    -0.8411  -0.8187  -0.6007  -0.4896  -0.3899  -0.2539  -0.1271  -0.0594
     0.0418   0.1051   0.1449   0.2482   0.3257   0.5135   0.5271   3.7590
     4.1217   4.7587   5.5247   6.0636   6.3091   6.5718   7.4436   7.8324
     8.3401   8.8391

          k = 0.3750 0.5303 0.0000 ( 11360 PWs)   bands (ev):

   -43.1575  -2.1108  -2.0504  -2.0084  -1.9745  -1.9482  -1.8605  -1.7564
    -1.7321  -1.6478  -1.5907  -1.4819  -1.3940  -1.2533  -1.0929  -0.7989
    -0.6962  -0.4112  -0.3261  -0.1551  -0.0633   0.0503   0.1197   0.1521
     0.1684   0.2498   0.2734   0.2792   0.3147   0.4961   0.5353   5.6097
     5.7647   6.1206   6.3537   6.7011   7.1275   7.5544   7.6712   7.9128
     8.1779   8.4484

          k = 0.3750-0.3977 0.0000 ( 11395 PWs)   bands (ev):

   -43.1567  -2.3146  -2.3035  -2.2776  -2.1481  -2.1071  -2.0651  -1.9240
    -1.8202  -1.7585  -1.7427  -1.5942  -1.3159  -1.1210  -0.7722  -0.6692
    -0.4541  -0.2155  -0.1613  -0.1096  -0.0611   0.1255   0.1644   0.2757
     0.3117   0.4068   0.4943   0.5651   0.6247   0.6741   0.6910   3.5502
     4.0305   4.7507   5.5578   6.4954   7.6211   8.1600   8.5340   8.7481
     9.0506   9.1531

          k = 0.3750-0.2652 0.0000 ( 11394 PWs)   bands (ev):

   -43.1589  -2.3567  -2.2726  -2.2196  -2.1416  -2.0639  -2.0332  -1.9092
    -1.7497  -1.7489  -1.6837  -1.4587  -1.2480  -0.9840  -0.7437  -0.5439
    -0.4309  -0.3117  -0.2308  -0.1195  -0.0939   0.0770   0.0911   0.1737
     0.2934   0.2997   0.3847   0.4703   0.5387   0.5696   0.6387   1.5685
     2.1821   3.0110   3.9485   4.9698   6.0869   7.4130   8.7524   9.6463
    10.3832  10.5416

          k = 0.3750-0.1326 0.0000 ( 11406 PWs)   bands (ev):

   -43.1629  -2.1288  -1.9815  -1.9358  -1.9202  -1.8434  -1.8026  -1.7112
    -1.6503  -1.5686  -1.5274  -1.3782  -1.2924  -0.9650  -0.8537  -0.8093
    -0.7234  -0.6446  -0.5639  -0.5206  -0.4125  -0.3612  -0.2486  -0.1161
    -0.0972   0.0876   0.1880   0.2649   0.3051   0.4841   0.5918   1.1326
     1.4494   2.0886   3.0010   4.1158   5.2503   6.5683   8.0004   9.3352
     9.8994  10.1046

          k = 0.3750-0.0000 0.0000 ( 11413 PWs)   bands (ev):

   -43.1664  -2.1559  -2.1398  -2.0009  -1.9721  -1.7627  -1.6804  -1.6273
    -1.5912  -1.5598  -1.5043  -1.4694  -1.4048  -1.2875  -1.2381  -0.9986
    -0.8725  -0.7047  -0.5182  -0.4337  -0.2631  -0.1862  -0.1222  -0.1099
    -0.0519   0.0494   0.0759   0.3161   0.3636   0.5451   0.5770   1.0838
     1.1815   1.6072   2.5452   3.7608   4.9479   6.2750   7.6479   8.4394
     8.8880   9.2496

          k =-0.5000-0.1768 0.0000 ( 11418 PWs)   bands (ev):

   -43.1653  -2.4868  -2.4824  -2.2951  -2.2628  -2.1064  -1.9537  -1.8788
    -1.8671  -1.7952  -1.7787  -1.6381  -1.4627  -0.7955  -0.6350  -0.3222
    -0.2681  -0.1901  -0.1071  -0.0716  -0.0520  -0.0492   0.0215   0.0538
     0.1078   0.1948   0.3246   0.4098   0.4976   0.7552   0.8033   3.1972
     3.5794   3.6134   3.6773   3.6952   4.0767   4.1422   6.9295   7.3330
     7.7139   8.0371

          k =-0.5000-0.0442 0.0000 ( 11392 PWs)   bands (ev):

   -43.1638  -2.3111  -2.3000  -2.1184  -2.0977  -1.8832  -1.8161  -1.7922
    -1.7807  -1.6423  -1.6227  -1.4757  -1.4066  -1.0675  -0.9353  -0.6785
    -0.5970  -0.4103  -0.3235  -0.2107  -0.1889  -0.1432  -0.0815  -0.0353
    -0.0069   0.0560   0.0995   0.3878   0.5401   0.7786   0.7975   3.2251
     3.3900   3.6723   4.1844   4.6942   4.9145   5.0213   7.1453   7.3333
     7.9083   8.2804

          k =-0.5000 0.0884 0.0000 ( 11392 PWs)   bands (ev):

   -43.1602  -2.0354  -2.0170  -1.9864  -1.9716  -1.8993  -1.8324  -1.7456
    -1.6284  -1.6195  -1.5168  -1.3813  -1.3053  -1.0840  -0.9714  -0.8703
    -0.7597  -0.7178  -0.5579  -0.4821  -0.2638  -0.2036  -0.1781  -0.0720
    -0.0551   0.0716   0.1928   0.3892   0.5514   0.7288   0.7540   3.3393
     3.6093   4.1343   4.8826   5.7816   6.6152   6.8558   7.5261   8.0066
     8.6913   8.9401

          k =-0.5000 0.2210 0.0000 ( 11395 PWs)   bands (ev):

   -43.1567  -2.3146  -2.3035  -2.2776  -2.1481  -2.1071  -2.0651  -1.9240
    -1.8202  -1.7585  -1.7427  -1.5942  -1.3159  -1.1210  -0.7722  -0.6692
    -0.4541  -0.2155  -0.1613  -0.1096  -0.0611   0.1255   0.1644   0.2757
     0.3117   0.4068   0.4943   0.5651   0.6247   0.6741   0.6910   3.5502
     4.0305   4.7507   5.5578   6.4954   7.6211   8.1600   8.5340   8.7481
     9.0506   9.1531

          k =-0.5000-0.7071 0.0000 ( 11406 PWs)   bands (ev):

   -43.1553  -2.4841  -2.4508  -2.4361  -2.3214  -2.2252  -2.2115  -2.1164
    -1.9233  -1.8442  -1.8008  -1.5455  -1.2596  -1.0540  -0.6348  -0.4945
    -0.4711  -0.2302  -0.1281  -0.0867  -0.0421   0.1330   0.3009   0.5768
     0.6097   0.6408   0.7192   0.7757   0.8585   0.9281   0.9578   3.7369
     4.4537   5.2574   5.9170   7.0895   7.3522   7.5253   7.8945   8.4044
     8.5720   9.1907

     the Fermi energy is     3.6137 ev

!    total energy              =    -520.61339117 Ry
     estimated scf accuracy    <       0.00000065 Ry
     smearing contrib. (-TS)   =      -0.00291035 Ry
     internal energy E=F+TS    =    -520.61048082 Ry

     The total energy is F=E-TS. E is the sum of the following terms:
     one-electron contribution =   -6337.58678605 Ry
     hartree contribution      =    3219.35285320 Ry
     xc contribution           =    -137.52923851 Ry
     ewald contribution        =    2735.33623826 Ry
     DFT-D3 Dispersion         =      -0.18354773 Ry

     convergence has been achieved in   5 iterations

     negative rho (up, down):  1.013E-05 0.000E+00

     Forces acting on atoms (cartesian axes, Ry/au):

     atom    1 type  2   force =     0.00540377   -0.00382694   -0.00234002
     atom    2 type  2   force =    -0.00019937    0.00014055   -0.00294227
     atom    3 type  2   force =    -0.00001781    0.00001440   -0.00471692
     atom    4 type  2   force =     0.00001024   -0.00000795    0.00026866
     atom    5 type  2   force =     0.00001267   -0.00000714    0.00320477
     atom    6 type  2   force =     0.00001277   -0.00000602    0.00345958
     atom    7 type  1   force =    -0.00522226    0.00369309    0.00306619
     The non-local contrib.  to forces
     atom    1 type  2   force =    -0.01557798    0.01100978    0.01203030
     atom    2 type  2   force =    -0.00076881    0.00054365    0.01313307
     atom    3 type  2   force =    -0.00011055    0.00007833   -0.00399596
     atom    4 type  2   force =    -0.00000315    0.00000063   -0.00641454
     atom    5 type  2   force =     0.00000143   -0.00000035   -0.02903186
     atom    6 type  2   force =     0.00000181    0.00000161   -0.06689893
     atom    7 type  1   force =    -0.00297777    0.00210570    0.05271377
     The ionic contribution  to forces
     atom    1 type  2   force =     0.12991945   -0.09187848  140.51419588
     atom    2 type  2   force =    -0.00057385    0.00041535   81.46055330
     atom    3 type  2   force =    -0.00003246    0.00002807   21.55654476
     atom    4 type  2   force =    -0.00000425   -0.00000209  -37.53673151
     atom    5 type  2   force =     0.00000247    0.00000202  -96.53139892
     atom    6 type  2   force =    -0.00000087   -0.00000021 -154.75525227
     atom    7 type  1   force =    -0.12931048    0.09143535   45.29208876
     The local contribution  to forces
     atom    1 type  2   force =    -0.10713009    0.07576793 -140.53381647
     atom    2 type  2   force =     0.00110285   -0.00078903  -81.47323905
     atom    3 type  2   force =     0.00011859   -0.00008862  -21.55637018
     atom    4 type  2   force =     0.00000497    0.00000323   37.54343257
     atom    5 type  2   force =    -0.00000235   -0.00000062   96.55957308
     atom    6 type  2   force =     0.00000162    0.00000018  154.81903356
     atom    7 type  1   force =     0.12652485   -0.08946597  -45.33966053
     The core correction contribution to forces
     atom    1 type  2   force =    -0.00098320    0.00069543    0.00330759
     atom    2 type  2   force =    -0.00002169    0.00001533   -0.00015062
     atom    3 type  2   force =    -0.00000184    0.00000124    0.00070651
     atom    4 type  2   force =    -0.00000017    0.00000027   -0.00010931
     atom    5 type  2   force =    -0.00000007    0.00000007   -0.00008893
     atom    6 type  2   force =     0.00000001    0.00000001    0.00473660
     atom    7 type  1   force =     0.00000000    0.00000000    0.00000000
     The Hubbard contrib.    to forces
     atom    1 type  2   force =     0.00000000    0.00000000    0.00000000
     atom    2 type  2   force =     0.00000000    0.00000000    0.00000000
     atom    3 type  2   force =     0.00000000    0.00000000    0.00000000
     atom    4 type  2   force =     0.00000000    0.00000000    0.00000000
     atom    5 type  2   force =     0.00000000    0.00000000    0.00000000
     atom    6 type  2   force =     0.00000000    0.00000000    0.00000000
     atom    7 type  1   force =     0.00000000    0.00000000    0.00000000
     The SCF correction term to forces
     atom    1 type  2   force =    -0.00023999    0.00016500    0.00360353
     atom    2 type  2   force =     0.00004533   -0.00003292   -0.00114462
     atom    3 type  2   force =    -0.00000268    0.00000316   -0.00184061
     atom    4 type  2   force =     0.00000198   -0.00000243   -0.00049892
     atom    5 type  2   force =     0.00000039   -0.00000070    0.00058821
     atom    6 type  2   force =    -0.00000062   -0.00000006    0.00001163
     atom    7 type  1   force =    -0.00005856    0.00004196    0.00052858

     DFT-D3 dispersion contribution to forces:
     atom    1 type  2   force =    -0.00059524    0.00042094   -0.00164106
     atom    2 type  2   force =     0.00000599   -0.00000427   -0.00207457
     atom    3 type  2   force =     0.00000032   -0.00000024    0.00025834
     atom    4 type  2   force =     0.00000005   -0.00000001    0.00061016
     atom    5 type  2   force =    -0.00000001   -0.00000000    0.00358297
     atom    6 type  2   force =     0.00000001   -0.00000000    0.00184877
     atom    7 type  1   force =     0.00058889   -0.00041641   -0.00258461

     Total force =     0.012366     Total SCF correction =     0.004319
     SCF correction compared to forces is large: reduce conv_thr to get better values


     Computing stress (Cartesian axis) and pressure


     negative rho (up, down):  1.013E-05 0.000E+00
          total   stress  (Ry/bohr**3)                   (kbar)     P=      -18.64
  -0.00012904  -0.00002493  -0.00001118          -18.98       -3.67       -1.65
  -0.00002493  -0.00014667   0.00000791           -3.67      -21.58        1.16
  -0.00001118   0.00000791  -0.00010450           -1.65        1.16      -15.37

     Energy error            =      1.6E-04 Ry
     Gradient error          =      5.4E-03 Ry/Bohr

     number of scf cycles    =   2
     number of bfgs steps    =   1

     energy             old  =    -520.6132281205 Ry
     energy             new  =    -520.6133911712 Ry

     CASE: energy            _new < energy            _old


     WARNING: bfgs curvature condition failed, Theta= 0.840
     new trust radius        =       0.0085262298 bohr
     new conv_thr            =       0.0000000163 Ry


ATOMIC_POSITIONS (angstrom)
Ag            0.0063563603        2.0232662477       21.6318577164
Ag            1.9115288373        0.6761012604       19.3125407415
Ag           -0.0000248478        2.0277716338       17.0191605081
Ag            1.9117877904        0.6759174758       14.6834510101
Ag            0.0000012871        2.0277522957       12.3453370380
Ag            1.9117900423        0.6759147887       10.0037348801
Li            2.5428614180        0.2296922635       23.6392708889



     Writing config-only to output data dir ./Ag_mp-2646971_110_hollow_0/Ag_mp-2646971_110_hollow_0.save/
     NEW-OLD atomic charge density approx. for the potential

     negative rho (up, down):  1.022E-05 0.000E+00

     total cpu time spent up to now is       17.9 secs

     per-process dynamical memory:   208.0 Mb

     Self-consistent Calculation

     iteration #  1     ecut=    55.00 Ry     beta= 0.30
     Davidson diagonalization with overlap
     ethr =  1.00E-06,  avg # of iterations =  3.4

     negative rho (up, down):  1.018E-05 0.000E+00

     total cpu time spent up to now is       18.5 secs

     total energy              =    -520.61349292 Ry
     estimated scf accuracy    <       0.00014842 Ry

     iteration #  2     ecut=    55.00 Ry     beta= 0.30
     Davidson diagonalization with overlap
     ethr =  2.15E-07,  avg # of iterations =  4.6

     negative rho (up, down):  1.030E-05 0.000E+00

     total cpu time spent up to now is       18.9 secs

     total energy              =    -520.61314423 Ry
     estimated scf accuracy    <       0.02088931 Ry

     iteration #  3     ecut=    55.00 Ry     beta= 0.30
     Davidson diagonalization with overlap
     ethr =  2.15E-07,  avg # of iterations =  2.4

     negative rho (up, down):  1.047E-05 0.000E+00

     total cpu time spent up to now is       19.2 secs

     total energy              =    -520.61350242 Ry
     estimated scf accuracy    <       0.00234060 Ry

     iteration #  4     ecut=    55.00 Ry     beta= 0.30
     Davidson diagonalization with overlap
     ethr =  2.15E-07,  avg # of iterations =  1.6

     negative rho (up, down):  1.053E-05 0.000E+00

     total cpu time spent up to now is       19.5 secs

     total energy              =    -520.61355681 Ry
     estimated scf accuracy    <       0.00024218 Ry

     iteration #  5     ecut=    55.00 Ry     beta= 0.30
     Davidson diagonalization with overlap
     ethr =  2.15E-07,  avg # of iterations =  1.4

     negative rho (up, down):  1.048E-05 0.000E+00

     total cpu time spent up to now is       19.8 secs

     total energy              =    -520.61356700 Ry
     estimated scf accuracy    <       0.00000160 Ry

     iteration #  6     ecut=    55.00 Ry     beta= 0.30
     Davidson diagonalization with overlap
     ethr =  2.32E-09,  avg # of iterations =  3.5

     negative rho (up, down):  1.031E-05 0.000E+00

     total cpu time spent up to now is       20.1 secs

     total energy              =    -520.61356727 Ry
     estimated scf accuracy    <       0.00000028 Ry

     iteration #  7     ecut=    55.00 Ry     beta= 0.30
     Davidson diagonalization with overlap
     ethr =  4.11E-10,  avg # of iterations =  3.5

     negative rho (up, down):  1.020E-05 0.000E+00

     total cpu time spent up to now is       20.5 secs

     total energy              =    -520.61356734 Ry
     estimated scf accuracy    <       0.00000004 Ry

     iteration #  8     ecut=    55.00 Ry     beta= 0.30
     Davidson diagonalization with overlap
     ethr =  6.34E-11,  avg # of iterations =  2.7

     negative rho (up, down):  1.015E-05 0.000E+00

     total cpu time spent up to now is       20.8 secs

     End of self-consistent calculation

          k = 0.0000 0.0000 0.0000 ( 11533 PWs)   bands (ev):

   -43.1838  -3.7343  -3.2809  -2.6809  -2.5235  -2.4481  -2.2642  -1.8926
    -1.8128  -1.6574  -1.4641  -1.3087  -1.2591  -1.2076  -1.1666  -1.1507
    -1.0012  -0.8876  -0.4643  -0.3846  -0.2378  -0.1734  -0.1514  -0.1247
    -0.0522  -0.0299   0.0003   0.0226   0.0257   0.0400   0.0740   0.1151
     0.2124   0.5048   0.8408   0.9046   2.1430   3.3579   3.8953   6.7835
     7.3902   7.7780

          k = 0.0000 0.1326 0.0000 ( 11489 PWs)   bands (ev):

   -43.1816  -3.3819  -2.9543  -2.4000  -2.3140  -2.2318  -2.0355  -1.8141
    -1.7367  -1.5789  -1.4129  -1.3657  -1.2966  -1.2542  -1.2199  -1.1122
    -1.0173  -0.8181  -0.7217  -0.4059  -0.3373  -0.2624  -0.2396  -0.1765
    -0.1368  -0.0997  -0.0821  -0.0329   0.0229   0.0726   0.0770   0.1457
     0.2302   0.4869   0.6381   1.6160   2.7433   3.8371   4.6102   7.0872
     7.7019   8.0416

          k = 0.0000 0.2652 0.0000 ( 11469 PWs)   bands (ev):

   -43.1764  -2.5628  -2.3920  -2.1760  -2.0686  -2.0202  -1.8911  -1.6354
    -1.6132  -1.5665  -1.5229  -1.4586  -1.3375  -1.1614  -0.9277  -0.8353
    -0.8108  -0.6977  -0.5028  -0.3854  -0.3204  -0.2527  -0.2082  -0.1873
    -0.1644  -0.1289  -0.0470   0.0249   0.0839   0.1053   0.1638   0.2337
     0.2662   0.4232   1.4215   2.6778   3.8227   5.0129   6.2561   7.9649
     8.6225   8.8289

          k = 0.0000 0.3977 0.0000 ( 11401 PWs)   bands (ev):

   -43.1710  -2.3915  -2.3823  -2.2200  -2.1987  -2.0677  -1.9214  -1.8096
    -1.7937  -1.7283  -1.6803  -1.5292  -1.3810  -0.9364  -0.8577  -0.4527
    -0.3521  -0.2716  -0.1771  -0.1218  -0.0851  -0.0381   0.0085   0.0410
     0.0633   0.1237   0.1955   0.3111   0.3474   0.4784   0.5295   1.1118
     1.2057   1.5922   2.6635   3.9036   5.0851   6.3459   7.0637   7.6379
     8.3054   8.5562

          k = 0.0000-0.5303 0.0000 ( 11418 PWs)   bands (ev):

   -43.1690  -2.4879  -2.4837  -2.2944  -2.2631  -2.1054  -1.9547  -1.8799
    -1.8666  -1.7960  -1.7784  -1.6379  -1.4633  -0.7935  -0.6356  -0.3184
    -0.2687  -0.1903  -0.1064  -0.0715  -0.0535  -0.0499   0.0213   0.0541
     0.1068   0.1964   0.3241   0.4094   0.4980   0.7556   0.8035   3.2017
     3.5797   3.6126   3.6760   3.6939   4.0768   4.1359   6.9300   7.3332
     7.7139   8.0388

          k = 0.1250 0.0442 0.0000 ( 11489 PWs)   bands (ev):

   -43.1816  -3.3819  -2.9543  -2.4000  -2.3140  -2.2318  -2.0355  -1.8141
    -1.7367  -1.5789  -1.4129  -1.3657  -1.2966  -1.2542  -1.2199  -1.1122
    -1.0173  -0.8181  -0.7217  -0.4059  -0.3373  -0.2624  -0.2396  -0.1765
    -0.1368  -0.0997  -0.0821  -0.0329   0.0229   0.0726   0.0770   0.1457
     0.2302   0.4869   0.6381   1.6160   2.7433   3.8371   4.6102   7.0872
     7.7019   8.0416

          k = 0.1250 0.1768 0.0000 ( 11509 PWs)   bands (ev):

   -43.1791  -2.8408  -2.4821  -2.0240  -1.9409  -1.8974  -1.8549  -1.7956
    -1.7078  -1.6685  -1.5014  -1.4879  -1.4063  -1.3045  -1.2913  -1.1670
    -1.1222  -0.8444  -0.7523  -0.4392  -0.4112  -0.2778  -0.2622  -0.1236
    -0.1075  -0.0166   0.0241   0.0338   0.0472   0.1123   0.1284   0.1384
     0.1781   0.3909   1.2559   2.3841   3.4607   4.5670   5.6438   7.5870
     8.2163   8.4815

          k = 0.1250 0.3094 0.0000 ( 11436 PWs)   bands (ev):

   -43.1736  -2.1457  -2.1110  -1.9975  -1.9191  -1.8795  -1.8014  -1.7418
    -1.6520  -1.5772  -1.4751  -1.3796  -1.2401  -1.0823  -0.9427  -0.8892
    -0.7901  -0.7631  -0.6256  -0.5320  -0.4135  -0.3534  -0.2153  -0.1412
    -0.0335   0.0342   0.0719   0.0929   0.1328   0.1410   0.1488   0.5248
     0.6367   1.2472   2.2955   3.5161   4.6252   5.8724   7.3012   8.6060
     9.2703   9.4081

          k = 0.1250 0.4419 0.0000 ( 11400 PWs)   bands (ev):

   -43.1688  -2.2690  -2.2535  -2.0618  -2.0558  -1.9274  -1.8525  -1.8303
    -1.7345  -1.6797  -1.6093  -1.4549  -1.3350  -0.9327  -0.8536  -0.6051
    -0.5505  -0.4349  -0.2918  -0.2232  -0.1904  -0.0596  -0.0214   0.0178
     0.0650   0.0904   0.1286   0.1632   0.2780   0.4819   0.5052   2.0811
     2.2956   2.8742   3.7724   4.7700   5.6987   6.2136   7.0730   7.4442
     8.1338   8.3624

          k = 0.1250-0.4861 0.0000 ( 11392 PWs)   bands (ev):

   -43.1674  -2.3121  -2.3015  -2.1185  -2.0979  -1.8812  -1.8172  -1.7920
    -1.7825  -1.6423  -1.6229  -1.4754  -1.4072  -1.0671  -0.9355  -0.6789
    -0.5959  -0.4086  -0.3222  -0.2116  -0.1899  -0.1425  -0.0813  -0.0347
    -0.0070   0.0559   0.0995   0.3885   0.5398   0.7790   0.7978   3.2276
     3.3887   3.6723   4.1833   4.6923   4.9134   5.0204   7.1457   7.3329
     7.9092   8.2806

          k = 0.1250-0.3536 0.0000 ( 11413 PWs)   bands (ev):

   -43.1701  -2.1567  -2.1414  -2.0018  -1.9723  -1.7617  -1.6809  -1.6258
    -1.5933  -1.5595  -1.5045  -1.4719  -1.4043  -1.2874  -1.2379  -0.9988
    -0.8728  -0.7043  -0.5177  -0.4315  -0.2629  -0.1868  -0.1225  -0.1092
    -0.0517   0.0503   0.0760   0.3165   0.3638   0.5458   0.5766   1.0847
     1.1811   1.6074   2.5456   3.7600   4.9471   6.2754   7.6478   8.4401
     8.8870   9.2494

          k = 0.1250-0.2210 0.0000 ( 11482 PWs)   bands (ev):

   -43.1754  -2.5915  -2.2792  -1.9526  -1.9292  -1.8267  -1.6797  -1.4966
    -1.4500  -1.4166  -1.3382  -1.3064  -1.2927  -1.2459  -1.1030  -1.0356
    -1.0109  -0.9357  -0.7295  -0.6252  -0.5353  -0.4564  -0.4163  -0.3036
    -0.2770  -0.2544  -0.2169  -0.1212  -0.0572   0.0986   0.1837   0.3654
     0.5137   0.6086   1.3082   2.4918   3.6388   4.8390   5.9901   7.8800
     8.5218   8.7609

          k = 0.1250-0.0884 0.0000 ( 11507 PWs)   bands (ev):

   -43.1802  -3.2645  -2.8243  -2.2938  -2.2386  -2.1531  -1.9237  -1.5955
    -1.5236  -1.3844  -1.2663  -1.2165  -1.2073  -1.1370  -1.0694  -1.0112
    -0.9775  -0.8970  -0.8229  -0.7156  -0.6341  -0.5479  -0.5277  -0.4154
    -0.3758  -0.2536  -0.2084  -0.1430  -0.0330   0.0196   0.1195   0.2656
     0.4576   0.6532   0.8045   1.6448   2.7925   3.9442   4.7439   7.1888
     7.8055   8.1340

          k = 0.2500 0.0884 0.0000 ( 11469 PWs)   bands (ev):

   -43.1764  -2.5628  -2.3920  -2.1760  -2.0686  -2.0202  -1.8911  -1.6354
    -1.6132  -1.5665  -1.5229  -1.4586  -1.3375  -1.1614  -0.9277  -0.8353
    -0.8108  -0.6977  -0.5028  -0.3854  -0.3204  -0.2527  -0.2082  -0.1873
    -0.1644  -0.1289  -0.0470   0.0249   0.0839   0.1053   0.1638   0.2337
     0.2662   0.4232   1.4215   2.6778   3.8227   5.0129   6.2561   7.9649
     8.6225   8.8289

          k = 0.2500 0.2210 0.0000 ( 11436 PWs)   bands (ev):

   -43.1736  -2.1457  -2.1110  -1.9975  -1.9191  -1.8795  -1.8014  -1.7418
    -1.6520  -1.5772  -1.4751  -1.3796  -1.2401  -1.0823  -0.9427  -0.8892
    -0.7901  -0.7631  -0.6256  -0.5320  -0.4135  -0.3534  -0.2153  -0.1412
    -0.0335   0.0342   0.0719   0.0929   0.1328   0.1410   0.1488   0.5248
     0.6367   1.2472   2.2955   3.5161   4.6252   5.8724   7.3012   8.6060
     9.2704   9.4100

          k = 0.2500 0.3536 0.0000 ( 11393 PWs)   bands (ev):

   -43.1688  -1.9831  -1.9578  -1.8100  -1.7573  -1.5845  -1.5791  -1.5400
    -1.4893  -1.4740  -1.4074  -1.3572  -1.2151  -1.1296  -1.0656  -0.9376
    -0.8832  -0.8480  -0.7968  -0.6261  -0.5484  -0.3202  -0.2954  -0.0980
    -0.0288   0.0577   0.1371   0.1414   0.1480   0.2239   0.2467   1.6829
     2.0258   2.7458   3.7585   4.9057   6.0311   7.2845   8.3020   8.8910
     9.3452   9.7054

          k = 0.2500 0.4861 0.0000 ( 11399 PWs)   bands (ev):

   -43.1648  -2.0092  -1.9985  -1.8962  -1.8839  -1.7877  -1.6862  -1.6179
    -1.5608  -1.5063  -1.4754  -1.2960  -1.2521  -1.1189  -1.0022  -0.9289
    -0.8405  -0.8165  -0.5996  -0.4894  -0.3901  -0.2535  -0.1255  -0.0582
     0.0419   0.1050   0.1453   0.2484   0.3256   0.5136   0.5272   3.7596
     4.1209   4.7584   5.5238   6.0645   6.3076   6.5717   7.4441   7.8330
     8.3397   8.8395

          k = 0.2500-0.4419 0.0000 ( 11392 PWs)   bands (ev):

   -43.1638  -2.0344  -2.0176  -1.9888  -1.9737  -1.9003  -1.8335  -1.7453
    -1.6282  -1.6195  -1.5171  -1.3817  -1.3053  -1.0838  -0.9709  -0.8717
    -0.7577  -0.7180  -0.5557  -0.4821  -0.2639  -0.2027  -0.1783  -0.0718
    -0.0545   0.0722   0.1937   0.3897   0.5517   0.7292   0.7540   3.3399
     3.6088   4.1346   4.8824   5.7815   6.6161   6.8544   7.5250   8.0072
     8.6922   8.9390

          k = 0.2500-0.3094 0.0000 ( 11406 PWs)   bands (ev):

   -43.1665  -2.1304  -1.9825  -1.9356  -1.9215  -1.8447  -1.8032  -1.7123
    -1.6494  -1.5688  -1.5282  -1.3789  -1.2927  -0.9637  -0.8550  -0.8068
    -0.7230  -0.6459  -0.5626  -0.5201  -0.4118  -0.3616  -0.2483  -0.1156
    -0.0968   0.0885   0.1886   0.2649   0.3053   0.4835   0.5930   1.1328
     1.4497   2.0891   3.0020   4.1159   5.2497   6.5686   8.0006   9.3355
     9.9005  10.1030

          k = 0.2500-0.1768 0.0000 ( 11422 PWs)   bands (ev):

   -43.1712  -2.3680  -2.0210  -1.9883  -1.7924  -1.6585  -1.5678  -1.5658
    -1.5145  -1.4656  -1.2790  -1.2490  -1.0966  -0.9097  -0.8710  -0.8677
    -0.7747  -0.7517  -0.6548  -0.6432  -0.5902  -0.5295  -0.3884  -0.3837
    -0.3047  -0.2854  -0.2643  -0.2325  -0.1222  -0.0786   0.3513   0.4069
     0.7177   0.9653   1.8209   2.9808   4.1095   5.3682   6.6266   8.3640
     9.0115   9.2399

          k = 0.2500-0.0442 0.0000 ( 11482 PWs)   bands (ev):

   -43.1754  -2.5915  -2.2792  -1.9526  -1.9292  -1.8267  -1.6797  -1.4966
    -1.4500  -1.4166  -1.3382  -1.3064  -1.2927  -1.2459  -1.1030  -1.0356
    -1.0109  -0.9357  -0.7295  -0.6252  -0.5353  -0.4564  -0.4163  -0.3036
    -0.2770  -0.2544  -0.2169  -0.1211  -0.0572   0.0986   0.1837   0.3654
     0.5137   0.6086   1.3082   2.4918   3.6388   4.8390   5.9901   7.8800
     8.5218   8.7609

          k = 0.3750 0.1326 0.0000 ( 11401 PWs)   bands (ev):

   -43.1710  -2.3915  -2.3823  -2.2200  -2.1987  -2.0677  -1.9214  -1.8096
    -1.7937  -1.7283  -1.6803  -1.5292  -1.3810  -0.9364  -0.8577  -0.4527
    -0.3521  -0.2716  -0.1771  -0.1218  -0.0851  -0.0381   0.0085   0.0410
     0.0633   0.1237   0.1955   0.3111   0.3474   0.4784   0.5295   1.1118
     1.2057   1.5922   2.6635   3.9036   5.0851   6.3459   7.0637   7.6379
     8.3054   8.5562

          k = 0.3750 0.2652 0.0000 ( 11400 PWs)   bands (ev):

   -43.1688  -2.2690  -2.2535  -2.0618  -2.0558  -1.9274  -1.8525  -1.8303
    -1.7345  -1.6797  -1.6093  -1.4549  -1.3350  -0.9327  -0.8536  -0.6051
    -0.5505  -0.4349  -0.2918  -0.2232  -0.1904  -0.0596  -0.0214   0.0178
     0.0650   0.0904   0.1286   0.1632   0.2780   0.4819   0.5052   2.0811
     2.2956   2.8742   3.7724   4.7700   5.6987   6.2136   7.0730   7.4442
     8.1338   8.3625

          k = 0.3750 0.3977 0.0000 ( 11399 PWs)   bands (ev):

   -43.1648  -2.0092  -1.9985  -1.8962  -1.8839  -1.7877  -1.6862  -1.6179
    -1.5608  -1.5063  -1.4754  -1.2960  -1.2521  -1.1189  -1.0022  -0.9289
    -0.8405  -0.8165  -0.5996  -0.4894  -0.3901  -0.2535  -0.1255  -0.0582
     0.0419   0.1050   0.1453   0.2484   0.3256   0.5136   0.5272   3.7596
     4.1209   4.7584   5.5238   6.0645   6.3076   6.5717   7.4441   7.8330
     8.3397   8.8395

          k = 0.3750 0.5303 0.0000 ( 11360 PWs)   bands (ev):

   -43.1611  -2.1115  -2.0515  -2.0100  -1.9760  -1.9486  -1.8607  -1.7560
    -1.7326  -1.6480  -1.5919  -1.4824  -1.3940  -1.2529  -1.0923  -0.7996
    -0.6954  -0.4093  -0.3244  -0.1551  -0.0617   0.0507   0.1213   0.1515
     0.1680   0.2494   0.2744   0.2794   0.3145   0.4968   0.5350   5.6091
     5.7655   6.1196   6.3523   6.7045   7.1266   7.5571   7.6705   7.9125
     8.1758   8.4494

          k = 0.3750-0.3977 0.0000 ( 11395 PWs)   bands (ev):

   -43.1603  -2.3157  -2.3047  -2.2791  -2.1478  -2.1073  -2.0660  -1.9240
    -1.8214  -1.7592  -1.7429  -1.5948  -1.3160  -1.1207  -0.7710  -0.6695
    -0.4513  -0.2148  -0.1608  -0.1096  -0.0606   0.1259   0.1645   0.2753
     0.3128   0.4072   0.4949   0.5653   0.6247   0.6748   0.6902   3.5495
     4.0298   4.7518   5.5599   6.4979   7.6223   8.1583   8.5331   8.7501
     9.0497   9.1528

          k = 0.3750-0.2652 0.0000 ( 11394 PWs)   bands (ev):

   -43.1625  -2.3583  -2.2737  -2.2206  -2.1412  -2.0646  -2.0334  -1.9093
    -1.7509  -1.7504  -1.6837  -1.4592  -1.2474  -0.9846  -0.7427  -0.5411
    -0.4298  -0.3121  -0.2311  -0.1186  -0.0935   0.0775   0.0906   0.1757
     0.2929   0.2995   0.3852   0.4696   0.5389   0.5693   0.6400   1.5679
     2.1825   3.0117   3.9499   4.9707   6.0869   7.4133   8.7534   9.6471
    10.3824  10.5399

          k = 0.3750-0.1326 0.0000 ( 11406 PWs)   bands (ev):

   -43.1665  -2.1304  -1.9825  -1.9356  -1.9215  -1.8447  -1.8032  -1.7123
    -1.6494  -1.5688  -1.5282  -1.3789  -1.2927  -0.9637  -0.8550  -0.8068
    -0.7230  -0.6459  -0.5626  -0.5201  -0.4118  -0.3616  -0.2483  -0.1156
    -0.0968   0.0885   0.1886   0.2649   0.3053   0.4835   0.5930   1.1328
     1.4497   2.0891   3.0020   4.1159   5.2497   6.5686   8.0006   9.3355
     9.9005  10.1030

          k = 0.3750-0.0000 0.0000 ( 11413 PWs)   bands (ev):

   -43.1701  -2.1567  -2.1414  -2.0018  -1.9723  -1.7617  -1.6809  -1.6258
    -1.5933  -1.5595  -1.5045  -1.4719  -1.4043  -1.2874  -1.2379  -0.9988
    -0.8728  -0.7043  -0.5177  -0.4315  -0.2629  -0.1868  -0.1225  -0.1092
    -0.0517   0.0503   0.0760   0.3165   0.3638   0.5458   0.5766   1.0847
     1.1811   1.6074   2.5456   3.7600   4.9471   6.2754   7.6478   8.4401
     8.8868   9.2494

          k =-0.5000-0.1768 0.0000 ( 11418 PWs)   bands (ev):

   -43.1690  -2.4879  -2.4837  -2.2944  -2.2631  -2.1054  -1.9547  -1.8799
    -1.8666  -1.7960  -1.7784  -1.6379  -1.4633  -0.7935  -0.6356  -0.3184
    -0.2687  -0.1903  -0.1064  -0.0715  -0.0535  -0.0499   0.0213   0.0541
     0.1068   0.1964   0.3241   0.4094   0.4980   0.7556   0.8035   3.2017
     3.5797   3.6126   3.6760   3.6939   4.0768   4.1359   6.9300   7.3331
     7.7139   8.0388

          k =-0.5000-0.0442 0.0000 ( 11392 PWs)   bands (ev):

   -43.1674  -2.3121  -2.3015  -2.1185  -2.0979  -1.8812  -1.8172  -1.7920
    -1.7825  -1.6423  -1.6229  -1.4754  -1.4072  -1.0671  -0.9355  -0.6789
    -0.5959  -0.4086  -0.3222  -0.2116  -0.1899  -0.1425  -0.0813  -0.0347
    -0.0070   0.0559   0.0995   0.3885   0.5399   0.7790   0.7978   3.2276
     3.3887   3.6723   4.1833   4.6923   4.9134   5.0204   7.1457   7.3329
     7.9092   8.2805

          k =-0.5000 0.0884 0.0000 ( 11392 PWs)   bands (ev):

   -43.1638  -2.0344  -2.0176  -1.9888  -1.9737  -1.9003  -1.8335  -1.7453
    -1.6282  -1.6195  -1.5171  -1.3817  -1.3053  -1.0838  -0.9709  -0.8717
    -0.7577  -0.7180  -0.5557  -0.4821  -0.2639  -0.2027  -0.1783  -0.0718
    -0.0545   0.0722   0.1937   0.3897   0.5517   0.7292   0.7540   3.3399
     3.6088   4.1346   4.8824   5.7815   6.6161   6.8544   7.5250   8.0072
     8.6922   8.9390

          k =-0.5000 0.2210 0.0000 ( 11395 PWs)   bands (ev):

   -43.1603  -2.3157  -2.3047  -2.2791  -2.1478  -2.1073  -2.0660  -1.9240
    -1.8214  -1.7592  -1.7429  -1.5948  -1.3160  -1.1207  -0.7710  -0.6695
    -0.4513  -0.2148  -0.1608  -0.1096  -0.0606   0.1259   0.1645   0.2753
     0.3128   0.4072   0.4949   0.5653   0.6247   0.6748   0.6902   3.5495
     4.0298   4.7518   5.5599   6.4979   7.6223   8.1583   8.5331   8.7501
     9.0497   9.1527

          k =-0.5000-0.7071 0.0000 ( 11406 PWs)   bands (ev):

   -43.1590  -2.4854  -2.4518  -2.4374  -2.3210  -2.2261  -2.2116  -2.1165
    -1.9237  -1.8462  -1.8010  -1.5460  -1.2588  -1.0545  -0.6345  -0.4908
    -0.4699  -0.2309  -0.1277  -0.0860  -0.0417   0.1328   0.3013   0.5783
[...]
     0.5601   0.6779   1.3883   2.5870   3.7320   4.9404   6.1107   7.8969
     8.5640   8.8065

          k = 0.1250-0.0884 0.0000 ( 11507 PWs)   bands (ev):

   -43.1393  -3.3478  -2.8667  -2.3436  -2.2628  -2.1756  -1.9488  -1.6073
    -1.5708  -1.4661  -1.3094  -1.2277  -1.1724  -1.1117  -1.0787  -1.0064
    -0.9827  -0.9155  -0.8410  -0.7604  -0.6731  -0.5689  -0.4656  -0.4248
    -0.3553  -0.3109  -0.2139  -0.1371   0.0080   0.0129   0.1047   0.3393
     0.4358   0.7444   0.7732   1.7433   2.8932   4.0219   4.8553   7.1908
     7.8257   8.1762

          k = 0.2500 0.0884 0.0000 ( 11469 PWs)   bands (ev):

   -43.1355  -2.6668  -2.4499  -2.2211  -2.1623  -2.0636  -1.9213  -1.6746
    -1.6149  -1.5579  -1.5005  -1.4455  -1.2583  -1.1702  -0.9700  -0.8512
    -0.7668  -0.6743  -0.5723  -0.5037  -0.4564  -0.3332  -0.2652  -0.2221
    -0.1616  -0.1328  -0.0714   0.0468   0.0838   0.1293   0.2335   0.3106
     0.4455   0.5314   1.4530   2.7099   3.8739   5.1092   6.3352   7.9952
     8.6714   8.8713

          k = 0.2500 0.2210 0.0000 ( 11436 PWs)   bands (ev):

   -43.1328  -2.2614  -2.1854  -2.0479  -2.0268  -1.9089  -1.8467  -1.7371
    -1.6554  -1.5469  -1.4809  -1.3457  -1.2592  -1.1122  -0.9934  -0.8724
    -0.8447  -0.7586  -0.7025  -0.5444  -0.4881  -0.3052  -0.2696  -0.1178
    -0.0883   0.0314   0.0792   0.1466   0.1660   0.1967   0.2907   0.5276
     0.7144   1.2637   2.2970   3.5206   4.6786   5.9833   7.3639   8.6748
     9.3406   9.4423

          k = 0.2500 0.3536 0.0000 ( 11393 PWs)   bands (ev):

   -43.1279  -1.9960  -1.9889  -1.9100  -1.8796  -1.7258  -1.5956  -1.5709
    -1.5415  -1.5008  -1.4374  -1.4114  -1.2043  -1.1050  -1.0418  -0.9960
    -0.9052  -0.8679  -0.7746  -0.6261  -0.4852  -0.3863  -0.2322  -0.1441
    -0.0298   0.0654   0.1599   0.1812   0.2467   0.2607   0.3241   1.6679
     2.0310   2.7421   3.7558   4.9155   6.1053   7.4471   8.4208   8.8985
     9.3287   9.6617

          k = 0.2500 0.4861 0.0000 ( 11399 PWs)   bands (ev):

   -43.1239  -2.1253  -2.0568  -1.9905  -1.9355  -1.8007  -1.7258  -1.6738
    -1.6021  -1.5350  -1.4969  -1.3070  -1.2263  -1.1339  -1.0193  -0.9647
    -0.8794  -0.7807  -0.5841  -0.4854  -0.4003  -0.3354  -0.1747  -0.0471
     0.0505   0.1508   0.2307   0.3304   0.4017   0.5221   0.5758   3.7427
     4.0982   4.7434   5.5235   6.0456   6.2720   6.5756   7.5593   7.9171
     8.4161   8.9398

          k = 0.2500-0.4419 0.0000 ( 11392 PWs)   bands (ev):

   -43.1230  -2.1669  -2.1081  -2.0496  -2.0341  -1.9260  -1.8711  -1.7582
    -1.7032  -1.5872  -1.5111  -1.3962  -1.2977  -1.1059  -0.9976  -0.8736
    -0.7691  -0.6736  -0.5337  -0.4991  -0.4103  -0.2591  -0.2244  -0.0422
    -0.0256   0.1101   0.3117   0.4625   0.6026   0.7413   0.7768   3.3215
     3.5883   4.1322   4.9206   5.8337   6.6331   6.8516   7.5615   8.0379
     8.7700   9.0174

          k = 0.2500-0.3094 0.0000 ( 11406 PWs)   bands (ev):

   -43.1257  -2.1820  -2.0988  -2.0319  -1.9295  -1.9082  -1.8317  -1.7745
    -1.6453  -1.5349  -1.5121  -1.3944  -1.3029  -1.0317  -0.9133  -0.8289
    -0.7566  -0.6113  -0.5838  -0.5098  -0.4826  -0.3678  -0.2471  -0.0903
    -0.0523   0.0812   0.2068   0.2757   0.3771   0.4878   0.6097   1.1566
     1.4250   2.0785   3.0545   4.2338   5.3696   6.6951   8.1656   9.4122
     9.8964  10.1945

          k = 0.2500-0.1768 0.0000 ( 11422 PWs)   bands (ev):

   -43.1304  -2.4129  -2.1209  -2.0294  -1.8146  -1.7523  -1.6287  -1.5280
    -1.5163  -1.4639  -1.2982  -1.2918  -1.1277  -1.0177  -0.9657  -0.8400
    -0.7998  -0.7460  -0.7449  -0.6299  -0.5699  -0.5218  -0.3854  -0.3730
    -0.3148  -0.3146  -0.2325  -0.1489  -0.0703  -0.0249   0.3175   0.3751
     0.7235   0.9804   1.8962   3.1141   4.2391   5.4878   6.7937   8.3882
     9.0761   9.2750

          k = 0.2500-0.0442 0.0000 ( 11482 PWs)   bands (ev):

   -43.1346  -2.6742  -2.3373  -2.0453  -1.9620  -1.8391  -1.7222  -1.5358
    -1.4796  -1.4600  -1.4022  -1.3262  -1.2606  -1.2167  -1.1177  -1.0436
    -0.9584  -0.8426  -0.7403  -0.7042  -0.5808  -0.5064  -0.4508  -0.3501
    -0.3015  -0.2450  -0.2037  -0.0860  -0.0572   0.0940   0.1434   0.4044
     0.5601   0.6776   1.3884   2.5870   3.7321   4.9405   6.1109   7.8969
     8.5640   8.8065

          k = 0.3750 0.1326 0.0000 ( 11401 PWs)   bands (ev):

   -43.1301  -2.4711  -2.4541  -2.2981  -2.2397  -2.2003  -1.9804  -1.8337
    -1.7861  -1.7029  -1.6332  -1.4705  -1.2643  -0.9277  -0.8232  -0.6785
    -0.4458  -0.4265  -0.2916  -0.1629  -0.1180  -0.0037   0.0282   0.0707
     0.1272   0.1918   0.2734   0.3311   0.4509   0.4997   0.5682   1.1207
     1.1948   1.6251   2.6896   3.9114   5.1290   6.4307   7.0777   7.6597
     8.3221   8.6335

          k = 0.3750 0.2652 0.0000 ( 11400 PWs)   bands (ev):

   -43.1280  -2.3432  -2.3342  -2.1411  -2.1006  -2.0694  -1.9218  -1.8331
    -1.7323  -1.6533  -1.5384  -1.4182  -1.2429  -0.9946  -0.8934  -0.7260
    -0.6188  -0.4776  -0.3442  -0.2674  -0.2167  -0.0923  -0.0198   0.0380
     0.0744   0.1291   0.2054   0.2967   0.3572   0.5039   0.5416   2.0667
     2.3037   2.8810   3.7661   4.7584   5.7173   6.1995   7.1838   7.4921
     8.1823   8.4615

          k = 0.3750 0.3977 0.0000 ( 11399 PWs)   bands (ev):

   -43.1239  -2.1256  -2.0569  -1.9905  -1.9355  -1.8008  -1.7257  -1.6738
    -1.6018  -1.5350  -1.4970  -1.3069  -1.2263  -1.1341  -1.0193  -0.9648
    -0.8793  -0.7806  -0.5839  -0.4854  -0.4001  -0.3354  -0.1746  -0.0471
     0.0503   0.1507   0.2308   0.3304   0.4016   0.5222   0.5757   3.7427
     4.0981   4.7433   5.5233   6.0456   6.2719   6.5756   7.5595   7.9171
     8.4164   8.9400

          k = 0.3750 0.5303 0.0000 ( 11360 PWs)   bands (ev):

   -43.1203  -2.2509  -2.1281  -2.0864  -2.0151  -1.9523  -1.8765  -1.8461
    -1.7438  -1.6577  -1.5322  -1.5263  -1.4192  -1.2989  -1.0543  -0.9127
    -0.6512  -0.4891  -0.2522  -0.1860  -0.1191  -0.0542   0.1191   0.1585
     0.1715   0.2598   0.3329   0.4298   0.4331   0.5104   0.5974   5.5336
     5.7562   6.0872   6.3370   6.8066   7.0657   7.3425   7.6630   8.0000
     8.1830   8.4966

          k = 0.3750-0.3977 0.0000 ( 11395 PWs)   bands (ev):

   -43.1195  -2.4077  -2.3856  -2.3327  -2.1716  -2.1511  -2.1151  -1.9236
    -1.8623  -1.7733  -1.6928  -1.6087  -1.3878  -1.1631  -0.8978  -0.6702
    -0.4303  -0.2689  -0.1918  -0.0721  -0.0064   0.1402   0.1826   0.2474
     0.3916   0.4559   0.4983   0.5684   0.6510   0.6974   0.7357   3.5737
     3.9308   4.7160   5.6378   6.6107   7.6625   7.9584   8.3162   8.8241
     9.0239   9.3991

          k = 0.3750-0.2652 0.0000 ( 11394 PWs)   bands (ev):

   -43.1217  -2.4140  -2.3563  -2.3096  -2.1343  -2.1277  -2.0788  -1.8702
    -1.7815  -1.7605  -1.6575  -1.4868  -1.3332  -1.0149  -0.9117  -0.4663
    -0.4498  -0.3935  -0.2362  -0.1412  -0.0013   0.0495   0.1949   0.2298
     0.2874   0.2901   0.4066   0.4608   0.5244   0.5730   0.6891   1.6564
     2.0837   2.9585   3.9796   5.1127   6.2242   7.5131   9.0299   9.7107
    10.1968  10.5885

          k = 0.3750-0.1326 0.0000 ( 11406 PWs)   bands (ev):

   -43.1257  -2.1821  -2.0989  -2.0320  -1.9294  -1.9082  -1.8317  -1.7745
    -1.6454  -1.5348  -1.5124  -1.3944  -1.3029  -1.0313  -0.9132  -0.8288
    -0.7564  -0.6113  -0.5835  -0.5095  -0.4826  -0.3678  -0.2474  -0.0901
    -0.0525   0.0811   0.2068   0.2755   0.3771   0.4876   0.6095   1.1567
     1.4250   2.0785   3.0545   4.2338   5.3696   6.6952   8.1657   9.4123
     9.8965  10.1945

          k = 0.3750-0.0000 0.0000 ( 11413 PWs)   bands (ev):

   -43.1292  -2.2400  -2.2267  -2.0506  -2.0025  -1.9348  -1.7543  -1.7203
    -1.6603  -1.5721  -1.4346  -1.3853  -1.3213  -1.2605  -1.1640  -0.9526
    -0.8703  -0.7267  -0.5917  -0.5109  -0.4390  -0.2440  -0.1448  -0.0891
    -0.0227   0.0376   0.2209   0.3069   0.4391   0.5452   0.5798   1.0920
     1.2100   1.6335   2.5993   3.8226   5.0269   6.3862   7.6970   8.4854
     8.9320   9.2742

          k =-0.5000-0.1768 0.0000 ( 11418 PWs)   bands (ev):

   -43.1281  -2.5555  -2.5490  -2.3707  -2.3282  -2.2497  -2.0452  -1.9384
    -1.8367  -1.7596  -1.6963  -1.5422  -1.3580  -0.8059  -0.6840  -0.5858
    -0.4139  -0.2695  -0.1737  -0.0903  -0.0600   0.0398   0.1088   0.1126
     0.1790   0.2815   0.3662   0.4790   0.5413   0.7328   0.8030   3.2661
     3.4090   3.6149   3.7049   3.8599   4.0143   4.0825   6.9654   7.4536
     7.7200   8.0714

          k =-0.5000-0.0442 0.0000 ( 11392 PWs)   bands (ev):

   -43.1265  -2.3876  -2.3773  -2.1614  -2.1582  -2.0735  -1.9055  -1.8357
    -1.7438  -1.6352  -1.5426  -1.4268  -1.3323  -0.9958  -0.9634  -0.7232
    -0.6495  -0.5348  -0.4544  -0.3030  -0.2176  -0.1523  -0.0931   0.0046
     0.0318   0.1088   0.3218   0.4413   0.5622   0.7785   0.8043   3.2243
     3.3815   3.6881   4.1849   4.6730   4.9233   5.0206   7.1889   7.4272
     7.9295   8.3303

          k =-0.5000 0.0884 0.0000 ( 11392 PWs)   bands (ev):

   -43.1230  -2.1669  -2.1083  -2.0497  -2.0341  -1.9261  -1.8710  -1.7583
    -1.7031  -1.5870  -1.5113  -1.3962  -1.2978  -1.1056  -0.9974  -0.8736
    -0.7691  -0.6735  -0.5335  -0.4990  -0.4100  -0.2586  -0.2244  -0.0425
    -0.0259   0.1099   0.3116   0.4625   0.6025   0.7413   0.7765   3.3216
     3.5882   4.1321   4.9204   5.8335   6.6330   6.8515   7.5619   8.0379
     8.7702   9.0177

          k =-0.5000 0.2210 0.0000 ( 11395 PWs)   bands (ev):

   -43.1195  -2.4077  -2.3856  -2.3327  -2.1716  -2.1511  -2.1151  -1.9236
    -1.8624  -1.7734  -1.6930  -1.6087  -1.3879  -1.1628  -0.8976  -0.6701
    -0.4303  -0.2689  -0.1918  -0.0716  -0.0067   0.1402   0.1824   0.2476
     0.3917   0.4559   0.4981   0.5685   0.6510   0.6973   0.7354   3.5737
     3.9308   4.7160   5.6378   6.6106   7.6623   7.9589   8.3161   8.8241
     9.0238   9.3992

          k =-0.5000-0.7071 0.0000 ( 11406 PWs)   bands (ev):

   -43.1182  -2.5507  -2.5332  -2.5059  -2.3325  -2.2962  -2.2620  -2.0575
    -1.9364  -1.8849  -1.7779  -1.5738  -1.3743  -1.0769  -0.8751  -0.4840
    -0.3635  -0.3027  -0.1166  -0.0384   0.1266   0.1422   0.3948   0.5698
     0.6024   0.6973   0.7117   0.8210   0.8480   0.8602   0.9638   3.8513
     4.2286   5.2469   6.1828   6.7176   7.2185   7.5979   7.9266   8.1040
     8.9560   9.4260

     the Fermi energy is     3.6311 ev

!    total energy              =    -520.61900814 Ry
     estimated scf accuracy    <          1.7E-09 Ry
     smearing contrib. (-TS)   =      -0.00223729 Ry
     internal energy E=F+TS    =    -520.61677086 Ry

     The total energy is F=E-TS. E is the sum of the following terms:
     one-electron contribution =   -6518.71581125 Ry
     hartree contribution      =    3309.91384425 Ry
     xc contribution           =    -137.57015827 Ry
     ewald contribution        =    2825.94203602 Ry
     DFT-D3 Dispersion         =      -0.18668160 Ry

     convergence has been achieved in  10 iterations

     negative rho (up, down):  1.052E-05 0.000E+00

     Forces acting on atoms (cartesian axes, Ry/au):

     atom    1 type  2   force =     0.00023597   -0.00022620   -0.00007325
     atom    2 type  2   force =    -0.00004710    0.00000649   -0.00025547
     atom    3 type  2   force =    -0.00047246    0.00040521   -0.00018962
     atom    4 type  2   force =    -0.00039671    0.00025498    0.00000770
     atom    5 type  2   force =    -0.00049186    0.00030319    0.00048550
     atom    6 type  2   force =     0.00079205   -0.00052506    0.00021323
     atom    7 type  1   force =     0.00038012   -0.00021861   -0.00018810
     The non-local contrib.  to forces
     atom    1 type  2   force =    -0.00491046    0.00360242    0.00510975
     atom    2 type  2   force =     0.00126720   -0.00091002    0.01460640
     atom    3 type  2   force =    -0.00172861    0.00124862   -0.00007710
     atom    4 type  2   force =     0.00019376   -0.00015062   -0.00645623
     atom    5 type  2   force =    -0.00047460    0.00032499   -0.03274213
     atom    6 type  2   force =     0.00045132   -0.00031119   -0.07037373
     atom    7 type  1   force =    -0.00048308    0.00035856    0.05205283
     The ionic contribution  to forces
     atom    1 type  2   force =    -0.08050296    0.05553055  142.33376758
     atom    2 type  2   force =     0.24702483   -0.17549436   82.92339423
     atom    3 type  2   force =    -0.26817309    0.19210170   22.43508227
     atom    4 type  2   force =     0.13783425   -0.09835707  -38.04852863
     atom    5 type  2   force =     0.00887417   -0.00788364  -98.18976658
     atom    6 type  2   force =    -0.02067523    0.01589733 -157.18143342
     atom    7 type  1   force =    -0.02438198    0.01820549   45.72748454
     The local contribution  to forces
     atom    1 type  2   force =     0.08546181   -0.05923865 -142.33857630
     atom    2 type  2   force =    -0.24638009    0.17501930  -82.93522102
     atom    3 type  2   force =     0.26731186   -0.19142914  -22.43516007
     atom    4 type  2   force =    -0.13722363    0.09790659   38.05294516
     atom    5 type  2   force =    -0.00873485    0.00773994   98.21878248
     atom    6 type  2   force =     0.02068304   -0.01586680  157.24439418
     atom    7 type  1   force =     0.02484843   -0.01850041  -45.77721881
     The core correction contribution to forces
     atom    1 type  2   force =     0.00002428   -0.00000768    0.00265484
     atom    2 type  2   force =    -0.00058464    0.00041658   -0.00044235
     atom    3 type  2   force =     0.00062081   -0.00044887    0.00005734
     atom    4 type  2   force =    -0.00029480    0.00021200    0.00012983
     atom    5 type  2   force =    -0.00001271    0.00001525    0.00024622
     atom    6 type  2   force =     0.00001515   -0.00001556    0.00525186
     atom    7 type  1   force =     0.00000000    0.00000000    0.00000000
     The Hubbard contrib.    to forces
     atom    1 type  2   force =     0.00000000    0.00000000    0.00000000
     atom    2 type  2   force =     0.00000000    0.00000000    0.00000000
     atom    3 type  2   force =     0.00000000    0.00000000    0.00000000
     atom    4 type  2   force =     0.00000000    0.00000000    0.00000000
     atom    5 type  2   force =     0.00000000    0.00000000    0.00000000
     atom    6 type  2   force =     0.00000000    0.00000000    0.00000000
     atom    7 type  1   force =     0.00000000    0.00000000    0.00000000
     The SCF correction term to forces
     atom    1 type  2   force =    -0.00008467    0.00005927   -0.00000226
     atom    2 type  2   force =    -0.00000567    0.00000428    0.00003793
     atom    3 type  2   force =     0.00000249   -0.00000162   -0.00004175
     atom    4 type  2   force =     0.00000777   -0.00000555    0.00007183
     atom    5 type  2   force =     0.00000237   -0.00000177    0.00000072
     atom    6 type  2   force =     0.00000573   -0.00000407   -0.00001424
     atom    7 type  1   force =     0.00001339   -0.00000948   -0.00002169

     DFT-D3 dispersion contribution to forces:
     atom    1 type  2   force =     0.00024677   -0.00017120   -0.00302776
     atom    2 type  2   force =    -0.00136994    0.00097162   -0.00263156
     atom    3 type  2   force =     0.00149289   -0.00106457   -0.00005121
     atom    4 type  2   force =    -0.00091526    0.00065054    0.00184483
     atom    5 type  2   force =    -0.00014745    0.00010933    0.00396389
     atom    6 type  2   force =     0.00031085   -0.00022387    0.00238769
     atom    7 type  1   force =     0.00038214   -0.00027186   -0.00248587

     Total force =     0.001604     Total SCF correction =     0.000142


     Computing stress (Cartesian axis) and pressure


     negative rho (up, down):  1.052E-05 0.000E+00
          total   stress  (Ry/bohr**3)                   (kbar)     P=      -14.71
  -0.00010897  -0.00001712   0.00000135          -16.03       -2.52        0.20
  -0.00001712  -0.00012126  -0.00000093           -2.52      -17.84       -0.14
   0.00000135  -0.00000093  -0.00006974            0.20       -0.14      -10.26

     Energy error            =      6.5E-05 Ry
     Gradient error          =      7.9E-04 Ry/Bohr

     bfgs converged in  57 scf cycles and  56 bfgs steps
     (criteria: energy <  1.0E-04 Ry, force <  1.0E-03 Ry/Bohr)

     End of BFGS Geometry Optimization

     Final energy             =    -520.6190081443 Ry

     File ./Ag_mp-2646971_110_hollow_0/Ag_mp-2646971_110_hollow_0.bfgs deleted, as requested
Begin final coordinates

ATOMIC_POSITIONS (angstrom)
Ag            0.2168229484        1.8750990425       21.5638829421
Ag            1.7648196191        0.7801493048       19.2561731300
Ag            0.2761469272        1.8317962004       16.9867934980
Ag            1.7921528696        0.7607688556       14.7142448867
Ag           -0.0717506389        2.0789564456       12.4304310816
Ag            1.9398557413        0.6556858590       10.1250992180
Li            2.3662534207        0.3539602576       23.5587280268
End final coordinates



     Writing all to output data dir ./Ag_mp-2646971_110_hollow_0/Ag_mp-2646971_110_hollow_0.save/

     init_run     :      5.91s CPU      6.84s WALL (       1 calls)
     electrons    :    179.49s CPU    203.39s WALL (      57 calls)
     update_pot   :     10.15s CPU     10.68s WALL (      56 calls)
     forces       :      8.91s CPU     10.34s WALL (      57 calls)
     force_dftd3  :      0.58s CPU      1.09s WALL (      57 calls)
     stress       :     32.17s CPU     32.94s WALL (      57 calls)
     stres_dftd3  :      0.45s CPU      0.75s WALL (      57 calls)

     Called by init_run:
     wfcinit      :      0.46s CPU      0.87s WALL (       1 calls)
     potinit      :      1.78s CPU      1.82s WALL (       1 calls)
     hinit0       :      3.57s CPU      4.01s WALL (       1 calls)

     Called by electrons:
     c_bands      :    150.03s CPU    164.41s WALL (     543 calls)
     sum_band     :     21.13s CPU     23.43s WALL (     543 calls)
     v_of_rho     :      3.58s CPU      4.88s WALL (     564 calls)
     newd         :      3.01s CPU      3.16s WALL (     564 calls)
     mix_rho      :      0.48s CPU      0.50s WALL (     543 calls)
     energy_dftd3 :      0.13s CPU      0.13s WALL (      57 calls)

     Called by c_bands:
     init_us_2    :      0.95s CPU      1.02s WALL (   10809 calls)
     init_us_2:cp :      0.93s CPU      1.02s WALL (   10809 calls)
     cegterg      :    135.42s CPU    143.58s WALL (    4887 calls)

     Called by *egterg:
     cdiaghg      :     38.92s CPU     39.36s WALL (   18809 calls)
     h_psi        :     76.56s CPU     82.99s WALL (   19646 calls)
     s_psi        :      3.27s CPU      3.45s WALL (   19646 calls)
     g_psi        :      0.30s CPU      0.31s WALL (   14750 calls)

     Called by h_psi:
     h_psi:calbec :      6.16s CPU      7.03s WALL (   19646 calls)
     vloc_psi     :     66.93s CPU     72.24s WALL (   19646 calls)
     add_vuspsi   :      3.22s CPU      3.47s WALL (   19646 calls)

     General routines
     calbec       :     10.66s CPU     11.92s WALL (   27098 calls)
     fft          :      7.84s CPU      9.41s WALL (    8735 calls)
     ffts         :      2.05s CPU      2.38s WALL (    1107 calls)
     fftw         :     72.31s CPU     77.99s WALL ( 1274288 calls)
     interpolate  :      1.95s CPU      2.11s WALL (     564 calls)

     Parallel routines

     PWSCF        :   3m58.36s CPU   4m28.00s WALL


   This run was terminated on:   6:36:52  24Jul2025            

=------------------------------------------------------------------------------=
   JOB DONE.
=------------------------------------------------------------------------------=
[1753349812.496488] [rome20:2124358:0]           flush.c:57   UCX  ERROR req 0x2ec5a80: error during flush: Connection reset by remote peer
[1753349812.496516] [rome20:2124358:0]           flush.c:57   UCX  ERROR req 0x2ec5a80: error during flush: Connection reset by remote peer
